
 Primary working directories    : /tmp/marin/molpro.LtvZrgOkM8
 Secondary working directories  : /tmp/marin/molpro.LtvZrgOkM8
 Wavefunction directory         : /home/marin/wfu/
 Main file repository           : /tmp/marin/molpro.LtvZrgOkM8/

 id        : ponzi

 Nodes     nprocs
 alba         1

 Using customized tuning parameters: mindgm=1; mindgv=20; mindgc=4; mindgr=1; noblas=0; minvec=7
 default implementation of scratch files=df  


 Variables initialized (924), CPU time= 0.00 sec
 nosym
 gprint,basis,orbital=100000
 geometry={
    O, 0.0, 0.0, 0.0
    O, 1.0, 0.0, 0.0
           }
 basis=aug-cc-pvqz                                                               !basis set
 hf,thrprint=-1
 
 put,xml,tmp.xml
 put,molden,tmp.molden
 Commands  initialized (760), CPU time= 0.01 sec, 616 directives.
 Default parameters read. Elapsed time= 0.03 sec

 Checking input...
 Passed
1


                                         ***  PROGRAM SYSTEM MOLPRO  ***
                                       Copyright, TTI GmbH Stuttgart, 2015
                                    Version 2018.1 linked Oct 16 2018 14:32:03


 **********************************************************************************************************************************
 LABEL *                                                                                 
  64 bit serial version                                                                  DATE: 10-Apr-19          TIME: 10:58:51  
 **********************************************************************************************************************************

 SHA1:             d673ad554fd0a1ae99daa449513f8b88cca0f763
 **********************************************************************************************************************************

 Variable memory set to    8000000 words,  buffer space 


 ZSYMEL=NOSYM


Geometry recognized as XYZ

 SETTING BASIS          =    AUG-CC-PVQZ


 Recomputing integrals since basis changed


 Using spherical harmonics

 Library entry O      S aug-cc-pVQZ          selected for orbital group  1
 Library entry O      P aug-cc-pVQZ          selected for orbital group  1
 Library entry O      D aug-cc-pVQZ          selected for orbital group  1
 Library entry O      F aug-cc-pVQZ          selected for orbital group  1
 Library entry O      G aug-cc-pVQZ          selected for orbital group  1


 PROGRAM * SEWARD (Integral evaluation for generally contracted gaussian basis sets)     Author: Roland Lindh, 1990

 Geometry written to block  1 of record 700


 Point group  C1  



 ATOMIC COORDINATES

 NR  ATOM    CHARGE       X              Y              Z

   1  O       8.00    0.000000000    0.000000000    0.000000000
   2  O       8.00    1.889726125    0.000000000    0.000000000

 Bond lengths in Bohr (Angstrom)

 1-2  1.889726125
     ( 1.000000000)


 BASIS DATA

   Nr Sym  Nuc  Type         Exponents   Contraction coefficients

    1.1 A     1  1s       61420.000000     0.000090   -0.000020    0.000000    0.000000    0.000000
    2.1 A                  9199.000000     0.000698   -0.000159    0.000000    0.000000    0.000000
    3.1 A                  2091.000000     0.003664   -0.000829    0.000000    0.000000    0.000000
    4.1 A                   590.900000     0.015218   -0.003508    0.000000    0.000000    0.000000
    5.1 A                   192.300000     0.052423   -0.012156    0.000000    0.000000    0.000000
                             69.320000     0.145921   -0.036261    0.000000    0.000000    0.000000
                             26.970000     0.305258   -0.082992    0.000000    0.000000    0.000000
                             11.100000     0.398508   -0.152090    0.000000    0.000000    0.000000
                              4.682000     0.216980   -0.115331    0.000000    0.000000    0.000000
                              1.428000     0.017594    0.288979    1.000000    0.000000    0.000000
                              0.554700    -0.002502    0.586128    0.000000    1.000000    0.000000
                              0.206700     0.000954    0.277624    0.000000    0.000000    1.000000
    6.1 A     1  1s           0.069590     1.000000
    7.1 A     1  2px         63.420000     0.006044
                             14.660000     0.041799
                              4.459000     0.161143
                              1.531000     0.356731
                              0.530200     0.448309
                              0.175000     0.244940
    8.1 A     1  2py         63.420000     0.006044
                             14.660000     0.041799
                              4.459000     0.161143
                              1.531000     0.356731
                              0.530200     0.448309
                              0.175000     0.244940
    9.1 A     1  2pz         63.420000     0.006044
                             14.660000     0.041799
                              4.459000     0.161143
                              1.531000     0.356731
                              0.530200     0.448309
                              0.175000     0.244940
   10.1 A     1  2px         63.420000     0.000000
                             14.660000     0.000000
                              4.459000     0.000000
                              1.531000     1.000000
                              0.530200     0.000000
                              0.175000     0.000000
   11.1 A     1  2py         63.420000     0.000000
                             14.660000     0.000000
                              4.459000     0.000000
                              1.531000     1.000000
                              0.530200     0.000000
                              0.175000     0.000000
   12.1 A     1  2pz         63.420000     0.000000
                             14.660000     0.000000
                              4.459000     0.000000
                              1.531000     1.000000
                              0.530200     0.000000
                              0.175000     0.000000
   13.1 A     1  2px         63.420000     0.000000
                             14.660000     0.000000
                              4.459000     0.000000
                              1.531000     0.000000
                              0.530200     1.000000
                              0.175000     0.000000
   14.1 A     1  2py         63.420000     0.000000
                             14.660000     0.000000
                              4.459000     0.000000
                              1.531000     0.000000
                              0.530200     1.000000
                              0.175000     0.000000
   15.1 A     1  2pz         63.420000     0.000000
                             14.660000     0.000000
                              4.459000     0.000000
                              1.531000     0.000000
                              0.530200     1.000000
                              0.175000     0.000000
   16.1 A     1  2px         63.420000     0.000000
                             14.660000     0.000000
                              4.459000     0.000000
                              1.531000     0.000000
                              0.530200     0.000000
                              0.175000     1.000000
   17.1 A     1  2py         63.420000     0.000000
                             14.660000     0.000000
                              4.459000     0.000000
                              1.531000     0.000000
                              0.530200     0.000000
                              0.175000     1.000000
   18.1 A     1  2pz         63.420000     0.000000
                             14.660000     0.000000
                              4.459000     0.000000
                              1.531000     0.000000
                              0.530200     0.000000
                              0.175000     1.000000
   19.1 A     1  2px          0.053480     1.000000
   20.1 A     1  2py          0.053480     1.000000
   21.1 A     1  2pz          0.053480     1.000000
   22.1 A     1  3d0          3.775000     1.000000
   23.1 A     1  3d2-         3.775000     1.000000
   24.1 A     1  3d1+         3.775000     1.000000
   25.1 A     1  3d2+         3.775000     1.000000
   26.1 A     1  3d1-         3.775000     1.000000
   27.1 A     1  3d0          1.300000     1.000000
   28.1 A     1  3d2-         1.300000     1.000000
   29.1 A     1  3d1+         1.300000     1.000000
   30.1 A     1  3d2+         1.300000     1.000000
   31.1 A     1  3d1-         1.300000     1.000000
   32.1 A     1  3d0          0.444000     1.000000
   33.1 A     1  3d2-         0.444000     1.000000
   34.1 A     1  3d1+         0.444000     1.000000
   35.1 A     1  3d2+         0.444000     1.000000
   36.1 A     1  3d1-         0.444000     1.000000
   37.1 A     1  3d0          0.154000     1.000000
   38.1 A     1  3d2-         0.154000     1.000000
   39.1 A     1  3d1+         0.154000     1.000000
   40.1 A     1  3d2+         0.154000     1.000000
   41.1 A     1  3d1-         0.154000     1.000000
   42.1 A     1  4f1+         2.666000     1.000000
   43.1 A     1  4f1-         2.666000     1.000000
   44.1 A     1  4f0          2.666000     1.000000
   45.1 A     1  4f3+         2.666000     1.000000
   46.1 A     1  4f2-         2.666000     1.000000
   47.1 A     1  4f3-         2.666000     1.000000
   48.1 A     1  4f2+         2.666000     1.000000
   49.1 A     1  4f1+         0.859000     1.000000
   50.1 A     1  4f1-         0.859000     1.000000
   51.1 A     1  4f0          0.859000     1.000000
   52.1 A     1  4f3+         0.859000     1.000000
   53.1 A     1  4f2-         0.859000     1.000000
   54.1 A     1  4f3-         0.859000     1.000000
   55.1 A     1  4f2+         0.859000     1.000000
   56.1 A     1  4f1+         0.324000     1.000000
   57.1 A     1  4f1-         0.324000     1.000000
   58.1 A     1  4f0          0.324000     1.000000
   59.1 A     1  4f3+         0.324000     1.000000
   60.1 A     1  4f2-         0.324000     1.000000
   61.1 A     1  4f3-         0.324000     1.000000
   62.1 A     1  4f2+         0.324000     1.000000
   63.1 A     1  5g0          1.846000     1.000000
   64.1 A     1  5g2-         1.846000     1.000000
   65.1 A     1  5g1+         1.846000     1.000000
   66.1 A     1  5g4+         1.846000     1.000000
   67.1 A     1  5g1-         1.846000     1.000000
   68.1 A     1  5g2+         1.846000     1.000000
   69.1 A     1  5g4-         1.846000     1.000000
   70.1 A     1  5g3+         1.846000     1.000000
   71.1 A     1  5g3-         1.846000     1.000000
   72.1 A     1  5g0          0.714000     1.000000
   73.1 A     1  5g2-         0.714000     1.000000
   74.1 A     1  5g1+         0.714000     1.000000
   75.1 A     1  5g4+         0.714000     1.000000
   76.1 A     1  5g1-         0.714000     1.000000
   77.1 A     1  5g2+         0.714000     1.000000
   78.1 A     1  5g4-         0.714000     1.000000
   79.1 A     1  5g3+         0.714000     1.000000
   80.1 A     1  5g3-         0.714000     1.000000
   81.1 A     2  1s       61420.000000     0.000090   -0.000020    0.000000    0.000000    0.000000
   82.1 A                  9199.000000     0.000698   -0.000159    0.000000    0.000000    0.000000
   83.1 A                  2091.000000     0.003664   -0.000829    0.000000    0.000000    0.000000
   84.1 A                   590.900000     0.015218   -0.003508    0.000000    0.000000    0.000000
   85.1 A                   192.300000     0.052423   -0.012156    0.000000    0.000000    0.000000
                             69.320000     0.145921   -0.036261    0.000000    0.000000    0.000000
                             26.970000     0.305258   -0.082992    0.000000    0.000000    0.000000
                             11.100000     0.398508   -0.152090    0.000000    0.000000    0.000000
                              4.682000     0.216980   -0.115331    0.000000    0.000000    0.000000
                              1.428000     0.017594    0.288979    1.000000    0.000000    0.000000
                              0.554700    -0.002502    0.586128    0.000000    1.000000    0.000000
                              0.206700     0.000954    0.277624    0.000000    0.000000    1.000000
   86.1 A     2  1s           0.069590     1.000000
   87.1 A     2  2px         63.420000     0.006044
                             14.660000     0.041799
                              4.459000     0.161143
                              1.531000     0.356731
                              0.530200     0.448309
                              0.175000     0.244940
   88.1 A     2  2py         63.420000     0.006044
                             14.660000     0.041799
                              4.459000     0.161143
                              1.531000     0.356731
                              0.530200     0.448309
                              0.175000     0.244940
   89.1 A     2  2pz         63.420000     0.006044
                             14.660000     0.041799
                              4.459000     0.161143
                              1.531000     0.356731
                              0.530200     0.448309
                              0.175000     0.244940
   90.1 A     2  2px         63.420000     0.000000
                             14.660000     0.000000
                              4.459000     0.000000
                              1.531000     1.000000
                              0.530200     0.000000
                              0.175000     0.000000
   91.1 A     2  2py         63.420000     0.000000
                             14.660000     0.000000
                              4.459000     0.000000
                              1.531000     1.000000
                              0.530200     0.000000
                              0.175000     0.000000
   92.1 A     2  2pz         63.420000     0.000000
                             14.660000     0.000000
                              4.459000     0.000000
                              1.531000     1.000000
                              0.530200     0.000000
                              0.175000     0.000000
   93.1 A     2  2px         63.420000     0.000000
                             14.660000     0.000000
                              4.459000     0.000000
                              1.531000     0.000000
                              0.530200     1.000000
                              0.175000     0.000000
   94.1 A     2  2py         63.420000     0.000000
                             14.660000     0.000000
                              4.459000     0.000000
                              1.531000     0.000000
                              0.530200     1.000000
                              0.175000     0.000000
   95.1 A     2  2pz         63.420000     0.000000
                             14.660000     0.000000
                              4.459000     0.000000
                              1.531000     0.000000
                              0.530200     1.000000
                              0.175000     0.000000
   96.1 A     2  2px         63.420000     0.000000
                             14.660000     0.000000
                              4.459000     0.000000
                              1.531000     0.000000
                              0.530200     0.000000
                              0.175000     1.000000
   97.1 A     2  2py         63.420000     0.000000
                             14.660000     0.000000
                              4.459000     0.000000
                              1.531000     0.000000
                              0.530200     0.000000
                              0.175000     1.000000
   98.1 A     2  2pz         63.420000     0.000000
                             14.660000     0.000000
                              4.459000     0.000000
                              1.531000     0.000000
                              0.530200     0.000000
                              0.175000     1.000000
   99.1 A     2  2px          0.053480     1.000000
  100.1 A     2  2py          0.053480     1.000000
  101.1 A     2  2pz          0.053480     1.000000
  102.1 A     2  3d0          3.775000     1.000000
  103.1 A     2  3d2-         3.775000     1.000000
  104.1 A     2  3d1+         3.775000     1.000000
  105.1 A     2  3d2+         3.775000     1.000000
  106.1 A     2  3d1-         3.775000     1.000000
  107.1 A     2  3d0          1.300000     1.000000
  108.1 A     2  3d2-         1.300000     1.000000
  109.1 A     2  3d1+         1.300000     1.000000
  110.1 A     2  3d2+         1.300000     1.000000
  111.1 A     2  3d1-         1.300000     1.000000
  112.1 A     2  3d0          0.444000     1.000000
  113.1 A     2  3d2-         0.444000     1.000000
  114.1 A     2  3d1+         0.444000     1.000000
  115.1 A     2  3d2+         0.444000     1.000000
  116.1 A     2  3d1-         0.444000     1.000000
  117.1 A     2  3d0          0.154000     1.000000
  118.1 A     2  3d2-         0.154000     1.000000
  119.1 A     2  3d1+         0.154000     1.000000
  120.1 A     2  3d2+         0.154000     1.000000
  121.1 A     2  3d1-         0.154000     1.000000
  122.1 A     2  4f1+         2.666000     1.000000
  123.1 A     2  4f1-         2.666000     1.000000
  124.1 A     2  4f0          2.666000     1.000000
  125.1 A     2  4f3+         2.666000     1.000000
  126.1 A     2  4f2-         2.666000     1.000000
  127.1 A     2  4f3-         2.666000     1.000000
  128.1 A     2  4f2+         2.666000     1.000000
  129.1 A     2  4f1+         0.859000     1.000000
  130.1 A     2  4f1-         0.859000     1.000000
  131.1 A     2  4f0          0.859000     1.000000
  132.1 A     2  4f3+         0.859000     1.000000
  133.1 A     2  4f2-         0.859000     1.000000
  134.1 A     2  4f3-         0.859000     1.000000
  135.1 A     2  4f2+         0.859000     1.000000
  136.1 A     2  4f1+         0.324000     1.000000
  137.1 A     2  4f1-         0.324000     1.000000
  138.1 A     2  4f0          0.324000     1.000000
  139.1 A     2  4f3+         0.324000     1.000000
  140.1 A     2  4f2-         0.324000     1.000000
  141.1 A     2  4f3-         0.324000     1.000000
  142.1 A     2  4f2+         0.324000     1.000000
  143.1 A     2  5g0          1.846000     1.000000
  144.1 A     2  5g2-         1.846000     1.000000
  145.1 A     2  5g1+         1.846000     1.000000
  146.1 A     2  5g4+         1.846000     1.000000
  147.1 A     2  5g1-         1.846000     1.000000
  148.1 A     2  5g2+         1.846000     1.000000
  149.1 A     2  5g4-         1.846000     1.000000
  150.1 A     2  5g3+         1.846000     1.000000
  151.1 A     2  5g3-         1.846000     1.000000
  152.1 A     2  5g0          0.714000     1.000000
  153.1 A     2  5g2-         0.714000     1.000000
  154.1 A     2  5g1+         0.714000     1.000000
  155.1 A     2  5g4+         0.714000     1.000000
  156.1 A     2  5g1-         0.714000     1.000000
  157.1 A     2  5g2+         0.714000     1.000000
  158.1 A     2  5g4-         0.714000     1.000000
  159.1 A     2  5g3+         0.714000     1.000000
  160.1 A     2  5g3-         0.714000     1.000000

 NUCLEAR CHARGE:                   16
 NUMBER OF PRIMITIVE AOS:         236
 NUMBER OF SYMMETRY AOS:          186
 NUMBER OF CONTRACTIONS:          160   (  160A   )
 NUMBER OF CORE ORBITALS:           2   (    2A   )
 NUMBER OF VALENCE ORBITALS:        8   (    8A   )


 NUCLEAR REPULSION ENERGY   33.86734150

 EXTRA SYMMETRY OF AOS IN SYMMETRY 1:   1 1 1 1 1 1 1 2 3 1   2 3 1 2 3 1 2 3 1 2   3 1 2 3 1 4 1 2 3 1   4 1 2 3 1 4 1 2 3 1
                                        4 1 2 3 1 4 2 3 1 2   3 1 4 2 3 1 2 3 1 4   2 3 1 2 3 1 4 1 2 3   4 1 2 3 1 4 1 2 3 4
                                        1 1 1 1 1 1 1 2 3 1   2 3 1 2 3 1 2 3 1 2   3 1 2 3 1 4 1 2 3 1   4 1 2 3 1 4 1 2 3 1
                                        4 1 2 3 1 4 2 3 1 2   3 1 4 2 3 1 2 3 1 4   2 3 1 2 3 1 4 1 2 3   4 1 2 3 1 4 1 2 3 4

 Eigenvalues of metric

         1 0.525E-04 0.296E-03 0.381E-03 0.381E-03 0.447E-03 0.738E-03 0.109E-02 0.137E-02


 Contracted 2-electron integrals neglected if value below      1.0D-11
 AO integral compression algorithm  1   Integral accuracy      1.0D-11

     137.101 MB (compressed) written to integral file ( 16.1%)


 NUMBER OF SORTED TWO-ELECTRON INTEGRALS:   82953640.     BUFFER LENGTH:  32768
 NUMBER OF SEGMENTS:  12  SEGMENT LENGTH:    7104565      RECORD LENGTH: 524288

 Memory used in sort:       7.66 MW

 SORT1 READ   106469131. AND WROTE    19276078. INTEGRALS IN     60 RECORDS. CPU TIME:     0.48 SEC, REAL TIME:     0.60 SEC
 SORT2 READ    19276078. AND WROTE    82953640. INTEGRALS IN    523 RECORDS. CPU TIME:     0.59 SEC, REAL TIME:     0.68 SEC

 FILE SIZES:   FILE 1:   168.0 MBYTE,  FILE 4:   251.7 MBYTE,   TOTAL:    419.7 MBYTE

 OPERATOR DM      FOR CENTER  0  COORDINATES:    0.000000    0.000000    0.000000


 **********************************************************************************************************************************
 DATASETS  * FILE   NREC   LENGTH (MB)   RECORD NAMES
              1      19      127.76       500      610      700      900      950      970     1000      129      960     1100   
                                          VAR    BASINP    GEOM    SYMINP    ZMAT    AOBASIS   BASIS     P2S    ABASIS      S 
                                         1400     1410     1200     1210     1080     1600     1650     1300     1700   
                                           T        V       H0       H01     AOSYM     SMH    MOLCAS    ERIS     OPER   

 PROGRAMS   *        TOTAL       INT
 CPU TIMES  *         4.28      4.21
 REAL TIME  *         4.62 SEC
 DISK USED  *       420.06 MB
 **********************************************************************************************************************************


 PROGRAM * RHF-SCF (CLOSED SHELL)       Authors: W. Meyer, H.-J. Werner


 NUMBER OF ELECTRONS:       8+    8-    SPACE SYMMETRY=1    SPIN SYMMETRY: Singlet 
 CONVERGENCE THRESHOLDS:    1.00E-05 (Density)    1.00E-07 (Energy)
 MAX. NUMBER OF ITERATIONS:       60
 INTERPOLATION TYPE:            DIIS
 INTERPOLATION STEPS:              2 (START)      1 (STEP)
 LEVEL SHIFTS:                  0.00 (CLOSED)  0.00 (OPEN) 



 Orbital guess generated from atomic densities. Full valence occupancy:   10

 Molecular orbital dump at record        2100.2

 Initial occupancy:   8

 ITERATION    DDIFF          GRAD             ENERGY        2-EL.EN.            DIPOLE MOMENTS         DIIS   ORB.
    1      0.000D+00      0.000D+00      -149.50534336    175.800784    0.00000   -0.00000    0.00000    0    start
    2      0.000D+00      0.613D-02      -149.53272410    179.031490    0.00000   -0.00000   -0.00000    1    diag
    3      0.362D-02      0.215D-02      -149.53549661    178.057875   -0.00000    0.00000    0.00000    2    diag
    4      0.115D-02      0.328D-03      -149.53564434    178.166796    0.00000    0.00000    0.00000    3    diag
    5      0.339D-03      0.690D-04      -149.53565291    178.154252   -0.00000    0.00000    0.00000    4    diag
    6      0.839D-04      0.127D-04      -149.53565340    178.157003   -0.00000    0.00000    0.00000    5    diag
    7      0.263D-04      0.236D-05      -149.53565341    178.156885   -0.00000    0.00000    0.00000    6    diag
    8      0.438D-05      0.218D-06      -149.53565341    178.156930   -0.00000    0.00000    0.00000    0    orth

 Final occupancy:   8

 !RHF STATE  1.1 Energy              -149.535653414491
 Nuclear energy                        33.86734150
 One-electron energy                 -272.48145974
 Two-electron energy                   89.07846483
 Virial quotient                       -0.99261205
 !RHF STATE  1.1 Dipole moment         -0.00000000     0.00000000     0.00000000
 Dipole moment /Debye                  -0.00000000     0.00000000     0.00000000

 MOLECULAR ORBITALS, SYMMETRY 1:
 ===============================

 Orb. Numbers:          1.1        2.1        3.1        4.1        5.1        6.1        7.1        8.1        9.1       10.1
 Orb. Energies:     -20.705238 -20.702441  -1.890749  -1.033130  -0.874563  -0.804268  -0.783651  -0.368225   0.087079   0.105478

    Nr  Atom  Typ     Orbital Coefficients:
     1    1   1s      0.706937   0.707266  -0.006096   0.002050  -0.000000  -0.001087  -0.000000   0.000000  -0.000913   0.000000
     2    1   1s      0.001090   0.001201   0.650433   0.665481  -0.000000  -0.247663  -0.000000  -0.000000   0.063826   0.000000
     3    1   1s      0.000730   0.001647  -0.006137  -0.003092  -0.000000   0.002738  -0.000000  -0.000000  -0.042578  -0.000000
     4    1   1s     -0.002847  -0.007035  -0.104079   0.023126   0.000000  -0.063162   0.000000   0.000000   0.310272  -0.000000
     5    1   1s     -0.000092   0.002039  -0.106026   0.129927   0.000000  -0.130877   0.000000  -0.000000   4.515454  -0.000000
     6    1   1s      0.000266   0.001059   0.005301   0.030003   0.000000  -0.008709   0.000000  -0.000000  11.711038  -0.000000
     7    1   2px     0.008659   0.008294   0.324293  -0.293119  -0.000000   0.679932   0.000000  -0.000000  -0.018329  -0.000000
     8    1   2py    -0.000000  -0.000000  -0.000000  -0.000000   0.683105   0.000000   0.000792   0.769910   0.000000   0.000660
     9    1   2pz    -0.000000   0.000000   0.000000   0.000000  -0.000858   0.000000   0.630638  -0.000967  -0.000000   0.525654
    10    1   2px    -0.003296  -0.003505  -0.003077   0.004234  -0.000000  -0.002307  -0.000000   0.000000  -0.012771   0.000000
    11    1   2py     0.000000   0.000000   0.000000   0.000000  -0.001478   0.000000  -0.000000  -0.000964   0.000000  -0.000007
    12    1   2pz     0.000000  -0.000000  -0.000000  -0.000000   0.000002  -0.000000  -0.000381   0.000001  -0.000000  -0.005289
    13    1   2px    -0.003426  -0.007338  -0.041204   0.030233   0.000000  -0.046922   0.000000  -0.000000   0.544551  -0.000000
    14    1   2py    -0.000000  -0.000000  -0.000000  -0.000000  -0.026060  -0.000000  -0.000009   0.012425  -0.000000   0.000094
    15    1   2pz    -0.000000   0.000000   0.000000   0.000000   0.000033   0.000000  -0.006790  -0.000016  -0.000000   0.075013
    16    1   2px     0.000012  -0.000930  -0.036109   0.068865   0.000000  -0.039731   0.000000  -0.000000   2.554406  -0.000000
    17    1   2py    -0.000000  -0.000000  -0.000000  -0.000000  -0.069670  -0.000000  -0.000056   0.123920   0.000000   0.000963
    18    1   2pz    -0.000000   0.000000   0.000000   0.000000   0.000088   0.000000  -0.044399  -0.000156  -0.000000   0.766820
    19    1   2px     0.000320   0.000149   0.002294   0.001836   0.000000   0.004475   0.000000  -0.000000   2.801305  -0.000000
    20    1   2py    -0.000000  -0.000000  -0.000000  -0.000000  -0.001357  -0.000000  -0.000000   0.076826  -0.000000   0.001792
    21    1   2pz    -0.000000   0.000000   0.000000   0.000000   0.000002  -0.000000  -0.000295  -0.000097  -0.000000   1.426136
    22    1   3d0    -0.000060  -0.000101  -0.003342   0.000614   0.000000  -0.002818   0.000000  -0.000000   0.002173  -0.000000
    23    1   3d2-    0.000000   0.000000   0.000000   0.000000   0.005090   0.000000   0.000008  -0.002499  -0.000000  -0.000003
    24    1   3d1+    0.000000  -0.000000  -0.000000  -0.000000  -0.000006  -0.000000   0.006177   0.000003  -0.000000  -0.002418
    25    1   3d2+    0.000170   0.000235   0.005215  -0.002480  -0.000000   0.005693  -0.000000   0.000000  -0.003770  -0.000000
    26    1   3d1-    0.000000   0.000000  -0.000001  -0.000002  -0.000000   0.000001   0.000000   0.000000  -0.000000  -0.000000
    27    1   3d0    -0.000262   0.000058  -0.010405   0.002399  -0.000000  -0.011075  -0.000000  -0.000000  -0.015899   0.000000
    28    1   3d2-   -0.000000  -0.000000  -0.000000  -0.000000   0.021551  -0.000000   0.000035  -0.009279  -0.000000  -0.000010
    29    1   3d1+   -0.000000   0.000000   0.000000   0.000000  -0.000027   0.000000   0.027582   0.000012  -0.000000  -0.007826
    30    1   3d2+   -0.000085  -0.000800   0.020727  -0.005623   0.000000   0.020335   0.000000   0.000000   0.027649   0.000000
    31    1   3d1-   -0.000001  -0.000001   0.000003  -0.000002   0.000000   0.000001   0.000000  -0.000000   0.000000   0.000000
    32    1   3d0    -0.000373   0.000619  -0.016177  -0.000365  -0.000000  -0.013069  -0.000000   0.000000  -0.129268   0.000000
    33    1   3d2-   -0.000000  -0.000000  -0.000000  -0.000000   0.016286  -0.000000   0.000042  -0.022289  -0.000000   0.000047
    34    1   3d1+   -0.000000   0.000000   0.000000   0.000000  -0.000020   0.000000   0.033386   0.000028  -0.000000   0.037044
    35    1   3d2+    0.000735  -0.001063   0.029796  -0.006659   0.000000   0.023074   0.000000  -0.000000   0.224038  -0.000000
    36    1   3d1-    0.000000   0.000000   0.000002  -0.000009  -0.000000   0.000001  -0.000000   0.000000   0.000000   0.000000
    37    1   3d0    -0.000494  -0.000130  -0.006716  -0.003595  -0.000000  -0.009974  -0.000000   0.000000  -0.240657   0.000000
    38    1   3d2-   -0.000000  -0.000000  -0.000000  -0.000000  -0.002568  -0.000000   0.000008  -0.001486  -0.000000   0.000372
    39    1   3d1+   -0.000000   0.000000   0.000000   0.000000   0.000003   0.000000   0.006681   0.000002  -0.000000   0.296318
    40    1   3d2+    0.000820   0.000205   0.011628   0.000578   0.000000   0.017037   0.000000  -0.000000   0.401819  -0.000000
    41    1   3d1-   -0.000000  -0.000000  -0.000000  -0.000007  -0.000000  -0.000000  -0.000000   0.000000  -0.000019   0.000000
    42    1   4f1+   -0.000073   0.000026  -0.001415   0.000107  -0.000000  -0.001082  -0.000000   0.000000  -0.000813  -0.000000
    43    1   4f1-   -0.000000   0.000000  -0.000000  -0.000000   0.000130   0.000000   0.000003   0.001339  -0.000000   0.000003
    44    1   4f0    -0.000000   0.000000   0.000000   0.000000  -0.000000   0.000000  -0.001309  -0.000004   0.000000   0.001273
    45    1   4f3+    0.000125  -0.000017   0.002843  -0.000759   0.000000   0.002901   0.000000   0.000000   0.000969  -0.000000
    46    1   4f2-    0.000000   0.000000   0.000002  -0.000001   0.000000   0.000002   0.000000  -0.000000  -0.000000  -0.000000
    47    1   4f3-    0.000000   0.000000   0.000000   0.000000   0.003913   0.000000   0.000005  -0.000443   0.000000  -0.000000
    48    1   4f2+    0.000000  -0.000000  -0.000000  -0.000000  -0.000006  -0.000000   0.003379  -0.000002  -0.000000  -0.000273
    49    1   4f1+   -0.000040   0.000133  -0.005624  -0.000318  -0.000000  -0.003687  -0.000000  -0.000000  -0.018696   0.000000
    50    1   4f1-    0.000000   0.000000   0.000000   0.000000   0.000078   0.000000   0.000005   0.003017   0.000000   0.000005
    51    1   4f0     0.000000  -0.000000  -0.000000  -0.000000  -0.000000  -0.000000  -0.004160  -0.000009   0.000000   0.001109
    52    1   4f3+    0.000125  -0.000246   0.009939  -0.000826   0.000000   0.006682   0.000000   0.000000   0.024099  -0.000000
    53    1   4f2-    0.000000  -0.000000   0.000004  -0.000002  -0.000000   0.000003  -0.000000   0.000000  -0.000000   0.000000
    54    1   4f3-   -0.000000  -0.000000  -0.000000  -0.000000   0.008824  -0.000000   0.000014  -0.003809  -0.000000   0.000001
    55    1   4f2+   -0.000000   0.000000   0.000000   0.000000  -0.000014   0.000000   0.009100  -0.000000  -0.000000   0.000591
    56    1   4f1+   -0.000218   0.000166  -0.004123   0.000231  -0.000000  -0.003028  -0.000000  -0.000000  -0.036644   0.000000
    57    1   4f1-    0.000000   0.000000   0.000000   0.000000   0.000822   0.000000   0.000004   0.002917   0.000000   0.000000
    58    1   4f0     0.000000  -0.000000  -0.000000  -0.000000  -0.000003  -0.000000  -0.001019  -0.000009   0.000000  -0.019415
    59    1   4f3+    0.000283  -0.000162   0.006595  -0.000279   0.000000   0.002888   0.000000   0.000000   0.045593  -0.000000
    60    1   4f2-    0.000000   0.000000   0.000002   0.000000  -0.000000  -0.000002  -0.000000   0.000000  -0.000003   0.000000
    61    1   4f3-   -0.000000  -0.000000  -0.000000  -0.000000   0.001968  -0.000000   0.000006  -0.004155  -0.000000   0.000046
    62    1   4f2+   -0.000000   0.000000   0.000000   0.000000  -0.000005   0.000000   0.003782   0.000001  -0.000000   0.030202
    63    1   5g0     0.000035  -0.000025   0.000438  -0.000040   0.000000   0.000528   0.000000   0.000000   0.000769  -0.000000
    64    1   5g2-    0.000000   0.000000   0.000000   0.000000  -0.000490   0.000000  -0.000000  -0.000078  -0.000000  -0.000000
    65    1   5g1+    0.000000  -0.000000  -0.000000  -0.000000   0.000001  -0.000000  -0.001238   0.000000  -0.000000   0.000212
    66    1   5g4+    0.000095  -0.000065   0.001371  -0.000038   0.000000   0.001160   0.000000  -0.000000   0.001569   0.000000
    67    1   5g1-   -0.000000   0.000000  -0.000000  -0.000000  -0.000000  -0.000000  -0.000000   0.000000  -0.000000   0.000000
    68    1   5g2+   -0.000059   0.000038  -0.000748   0.000033  -0.000000  -0.000798  -0.000000   0.000000  -0.001155   0.000000
    69    1   5g4-   -0.000000  -0.000000  -0.000000  -0.000000   0.001675  -0.000000   0.000002  -0.000490   0.000000  -0.000001
    70    1   5g3+   -0.000000   0.000000   0.000000   0.000000  -0.000002   0.000000   0.001323   0.000001   0.000000  -0.000452
    71    1   5g3-    0.000000  -0.000000   0.000001   0.000000   0.000000   0.000000   0.000000  -0.000000   0.000000  -0.000000
    72    1   5g0    -0.000013   0.000012   0.000838  -0.000159   0.000000   0.000498   0.000000   0.000000   0.002694   0.000000
    73    1   5g2-    0.000000   0.000000   0.000000   0.000000  -0.000458   0.000000   0.000001   0.000257   0.000000  -0.000003
    74    1   5g1+    0.000000  -0.000000  -0.000000  -0.000000   0.000001  -0.000000  -0.001614  -0.000001   0.000000  -0.002867
    75    1   5g4+    0.000004  -0.000017   0.002154  -0.000314   0.000000   0.000688   0.000000   0.000000   0.004925   0.000000
    76    1   5g1-   -0.000000   0.000000  -0.000000  -0.000000   0.000000   0.000000   0.000000  -0.000000   0.000000  -0.000000
    77    1   5g2+    0.000015  -0.000011  -0.001330   0.000175  -0.000000  -0.000673  -0.000000  -0.000000  -0.003950  -0.000000
    78    1   5g4-   -0.000000  -0.000000  -0.000000  -0.000000   0.002371  -0.000000   0.000004  -0.001809  -0.000000   0.000004
    79    1   5g3+   -0.000000   0.000000   0.000000   0.000000  -0.000003   0.000000   0.002139   0.000003  -0.000000   0.002037
    80    1   5g3-    0.000000  -0.000000   0.000001  -0.000000  -0.000000  -0.000000  -0.000000   0.000000  -0.000001   0.000000
    81    2   1s      0.706937  -0.707266  -0.006096  -0.002050  -0.000000  -0.001087   0.000000   0.000000   0.000913  -0.000000
    82    2   1s      0.001090  -0.001201   0.650433  -0.665481  -0.000000  -0.247663   0.000000   0.000000  -0.063826   0.000000
    83    2   1s      0.000730  -0.001647  -0.006137   0.003092   0.000000   0.002738   0.000000   0.000000   0.042578   0.000000
    84    2   1s     -0.002847   0.007035  -0.104079  -0.023126  -0.000000  -0.063162  -0.000000  -0.000000  -0.310272   0.000000
    85    2   1s     -0.000092  -0.002039  -0.106026  -0.129927  -0.000000  -0.130877  -0.000000   0.000000  -4.515454   0.000000
    86    2   1s      0.000266  -0.001059   0.005301  -0.030003  -0.000000  -0.008709  -0.000000   0.000000 -11.711038   0.000000
    87    2   2px    -0.008659   0.008294  -0.324293  -0.293119   0.000000  -0.679932  -0.000000  -0.000000  -0.018329   0.000000
    88    2   2py    -0.000000   0.000000   0.000000   0.000000   0.683105  -0.000000   0.000792  -0.769910  -0.000000  -0.000660
    89    2   2pz     0.000000  -0.000000  -0.000000   0.000000  -0.000858   0.000000   0.630638   0.000967  -0.000000  -0.525654
    90    2   2px     0.003296  -0.003505   0.003077   0.004234   0.000000   0.002307   0.000000   0.000000  -0.012771  -0.000000
    91    2   2py    -0.000000  -0.000000  -0.000000  -0.000000  -0.001478   0.000000  -0.000000   0.000964   0.000000   0.000007
    92    2   2pz    -0.000000   0.000000   0.000000   0.000000   0.000002   0.000000  -0.000381  -0.000001   0.000000   0.005289
    93    2   2px     0.003426  -0.007338   0.041204   0.030233   0.000000   0.046922   0.000000  -0.000000   0.544551  -0.000000
    94    2   2py     0.000000   0.000000   0.000000   0.000000  -0.026060   0.000000  -0.000009  -0.012425  -0.000000  -0.000094
    95    2   2pz     0.000000  -0.000000  -0.000000  -0.000000   0.000033  -0.000000  -0.006790   0.000016   0.000000  -0.075013
    96    2   2px    -0.000012  -0.000930   0.036109   0.068865   0.000000   0.039731   0.000000  -0.000000   2.554406   0.000000
    97    2   2py     0.000000   0.000000   0.000000   0.000000  -0.069670   0.000000  -0.000056  -0.123920  -0.000000  -0.000963
    98    2   2pz     0.000000  -0.000000  -0.000000  -0.000000   0.000088  -0.000000  -0.044399   0.000156   0.000000  -0.766820
    99    2   2px    -0.000320   0.000149  -0.002294   0.001836  -0.000000  -0.004475   0.000000  -0.000000   2.801305   0.000000
   100    2   2py     0.000000   0.000000   0.000000   0.000000  -0.001357   0.000000  -0.000000  -0.076826   0.000000  -0.001792
   101    2   2pz     0.000000  -0.000000  -0.000000  -0.000000   0.000002   0.000000  -0.000295   0.000097   0.000000  -1.426136
   102    2   3d0    -0.000060   0.000101  -0.003342  -0.000614  -0.000000  -0.002818  -0.000000  -0.000000  -0.002173   0.000000
   103    2   3d2-    0.000000   0.000000   0.000000   0.000000  -0.005090   0.000000  -0.000008  -0.002499  -0.000000  -0.000003
   104    2   3d1+    0.000000  -0.000000  -0.000000  -0.000000   0.000006  -0.000000  -0.006177   0.000003   0.000000  -0.002418
   105    2   3d2+    0.000170  -0.000235   0.005215   0.002480   0.000000   0.005693   0.000000   0.000000   0.003770   0.000000
   106    2   3d1-    0.000000  -0.000000  -0.000001   0.000002   0.000000   0.000001  -0.000000   0.000000   0.000000   0.000000
   107    2   3d0    -0.000262  -0.000058  -0.010405  -0.002399   0.000000  -0.011075   0.000000   0.000000   0.015899  -0.000000
   108    2   3d2-   -0.000000  -0.000000  -0.000000  -0.000000  -0.021551  -0.000000  -0.000035  -0.009279  -0.000000  -0.000010
   109    2   3d1+   -0.000000   0.000000   0.000000   0.000000   0.000027   0.000000  -0.027582   0.000012   0.000000  -0.007826
   110    2   3d2+   -0.000085   0.000800   0.020727   0.005623  -0.000000   0.020335  -0.000000  -0.000000  -0.027649   0.000000
   111    2   3d1-   -0.000001   0.000001   0.000003   0.000002  -0.000000   0.000001   0.000000  -0.000000  -0.000000  -0.000000
   112    2   3d0    -0.000373  -0.000619  -0.016177   0.000365   0.000000  -0.013069   0.000000  -0.000000   0.129268  -0.000000
   113    2   3d2-   -0.000000  -0.000000  -0.000000  -0.000000  -0.016286  -0.000000  -0.000042  -0.022289  -0.000000   0.000047
   114    2   3d1+   -0.000000   0.000000   0.000000   0.000000   0.000020   0.000000  -0.033386   0.000028   0.000000   0.037044
   115    2   3d2+    0.000735   0.001063   0.029796   0.006659  -0.000000   0.023074  -0.000000   0.000000  -0.224038  -0.000000
   116    2   3d1-    0.000000  -0.000000   0.000002   0.000009   0.000000   0.000001   0.000000  -0.000000  -0.000000  -0.000000
   117    2   3d0    -0.000494   0.000130  -0.006716   0.003595   0.000000  -0.009974   0.000000  -0.000000   0.240657   0.000000
   118    2   3d2-   -0.000000  -0.000000  -0.000000  -0.000000   0.002568  -0.000000  -0.000008  -0.001486  -0.000000   0.000372
   119    2   3d1+   -0.000000   0.000000   0.000000   0.000000  -0.000003   0.000000  -0.006681   0.000002  -0.000000   0.296318
   120    2   3d2+    0.000820  -0.000205   0.011628  -0.000578  -0.000000   0.017037  -0.000000   0.000000  -0.401819  -0.000000
   121    2   3d1-   -0.000000   0.000000  -0.000000   0.000007   0.000000  -0.000000   0.000000  -0.000000   0.000019  -0.000000
   122    2   4f1+    0.000073   0.000026   0.001415   0.000107  -0.000000   0.001082  -0.000000  -0.000000  -0.000813   0.000000
   123    2   4f1-    0.000000   0.000000   0.000000   0.000000   0.000130   0.000000   0.000003  -0.001339  -0.000000  -0.000003
   124    2   4f0     0.000000  -0.000000  -0.000000  -0.000000  -0.000000  -0.000000  -0.001309   0.000004   0.000000  -0.001273
   125    2   4f3+   -0.000125  -0.000017  -0.002843  -0.000759   0.000000  -0.002901   0.000000   0.000000   0.000969  -0.000000
   126    2   4f2-   -0.000000   0.000000  -0.000002  -0.000001  -0.000000  -0.000002   0.000000  -0.000000  -0.000000  -0.000000
   127    2   4f3-   -0.000000  -0.000000  -0.000000  -0.000000   0.003913  -0.000000   0.000005   0.000443   0.000000   0.000000
   128    2   4f2+   -0.000000   0.000000   0.000000   0.000000  -0.000006   0.000000   0.003379   0.000002  -0.000000   0.000273
   129    2   4f1+    0.000040   0.000133   0.005624  -0.000318  -0.000000   0.003687  -0.000000  -0.000000  -0.018696  -0.000000
   130    2   4f1-   -0.000000  -0.000000  -0.000000  -0.000000   0.000078  -0.000000   0.000005  -0.003017  -0.000000  -0.000005
   131    2   4f0    -0.000000   0.000000   0.000000   0.000000  -0.000000   0.000000  -0.004160   0.000009   0.000000  -0.001109
   132    2   4f3+   -0.000125  -0.000246  -0.009939  -0.000826   0.000000  -0.006682   0.000000  -0.000000   0.024099   0.000000
   133    2   4f2-   -0.000000  -0.000000  -0.000004  -0.000002  -0.000000  -0.000003  -0.000000   0.000000  -0.000000   0.000000
   134    2   4f3-    0.000000   0.000000   0.000000   0.000000   0.008824   0.000000   0.000014   0.003809   0.000000  -0.000001
   135    2   4f2+    0.000000  -0.000000  -0.000000  -0.000000  -0.000014  -0.000000   0.009100   0.000000  -0.000000  -0.000591
   136    2   4f1+    0.000218   0.000166   0.004123   0.000231  -0.000000   0.003028  -0.000000   0.000000  -0.036644   0.000000
   137    2   4f1-   -0.000000  -0.000000  -0.000000  -0.000000   0.000822  -0.000000   0.000004  -0.002917  -0.000000  -0.000000
   138    2   4f0    -0.000000   0.000000   0.000000   0.000000  -0.000003   0.000000  -0.001019   0.000009  -0.000000   0.019415
   139    2   4f3+   -0.000283  -0.000162  -0.006595  -0.000279  -0.000000  -0.002888   0.000000   0.000000   0.045593   0.000000
   140    2   4f2-   -0.000000   0.000000  -0.000002   0.000000  -0.000000   0.000002  -0.000000   0.000000  -0.000003   0.000000
   141    2   4f3-    0.000000   0.000000   0.000000   0.000000   0.001968   0.000000   0.000006   0.004155   0.000000  -0.000046
   142    2   4f2+    0.000000  -0.000000  -0.000000  -0.000000  -0.000005  -0.000000   0.003782  -0.000001   0.000000  -0.030202
   143    2   5g0     0.000035   0.000025   0.000438   0.000040  -0.000000   0.000528  -0.000000  -0.000000  -0.000769  -0.000000
   144    2   5g2-    0.000000   0.000000   0.000000   0.000000   0.000490   0.000000   0.000000  -0.000078  -0.000000  -0.000000
   145    2   5g1+    0.000000  -0.000000  -0.000000  -0.000000  -0.000001  -0.000000   0.001238   0.000000  -0.000000   0.000212
   146    2   5g4+    0.000095   0.000065   0.001371   0.000038  -0.000000   0.001160  -0.000000  -0.000000  -0.001569  -0.000000
   147    2   5g1-   -0.000000  -0.000000  -0.000000   0.000000  -0.000000  -0.000000  -0.000000  -0.000000   0.000000  -0.000000
   148    2   5g2+   -0.000059  -0.000038  -0.000748  -0.000033   0.000000  -0.000798   0.000000   0.000000   0.001155  -0.000000
   149    2   5g4-   -0.000000  -0.000000  -0.000000  -0.000000  -0.001675  -0.000000  -0.000002  -0.000490  -0.000000  -0.000001
   150    2   5g3+   -0.000000   0.000000   0.000000   0.000000   0.000002   0.000000  -0.001323   0.000001   0.000000  -0.000452
   151    2   5g3-    0.000000   0.000000   0.000001  -0.000000   0.000000   0.000000  -0.000000   0.000000  -0.000000   0.000000
   152    2   5g0    -0.000013  -0.000012   0.000838   0.000159  -0.000000   0.000498  -0.000000  -0.000000  -0.002694   0.000000
   153    2   5g2-    0.000000   0.000000   0.000000   0.000000   0.000458   0.000000  -0.000001   0.000257   0.000000  -0.000003
   154    2   5g1+    0.000000  -0.000000  -0.000000  -0.000000  -0.000001  -0.000000   0.001614  -0.000001  -0.000000  -0.002867
   155    2   5g4+    0.000004   0.000017   0.002154   0.000314   0.000000   0.000688  -0.000000  -0.000000  -0.004925   0.000000
   156    2   5g1-   -0.000000  -0.000000  -0.000000   0.000000  -0.000000   0.000000  -0.000000   0.000000  -0.000000   0.000000
   157    2   5g2+    0.000015   0.000011  -0.001330  -0.000175   0.000000  -0.000673   0.000000   0.000000   0.003950  -0.000000
   158    2   5g4-   -0.000000  -0.000000  -0.000000  -0.000000  -0.002371  -0.000000  -0.000004  -0.001809  -0.000000   0.000004
   159    2   5g3+   -0.000000   0.000000   0.000000   0.000000   0.000003   0.000000  -0.002139   0.000003   0.000000   0.002037
   160    2   5g3-    0.000000   0.000000   0.000001   0.000000   0.000000  -0.000000   0.000000  -0.000000   0.000001  -0.000000

 Orb. Numbers:         11.1       12.1       13.1       14.1       15.1       16.1       17.1       18.1       19.1       20.1
 Orb. Energies:       0.125258   0.125368   0.130934   0.168499   0.169913   0.190586   0.293751   0.428632   0.430272   0.471097

    Nr  Atom  Typ     Orbital Coefficients:
     1    1   1s     -0.010382   0.000000   0.000000  -0.004539  -0.000000  -0.000000  -0.009095  -0.000447  -0.000000   0.006062
     2    1   1s     -0.150365   0.000000   0.000000  -0.106211  -0.000000  -0.000000  -0.195176  -0.028577  -0.000000   0.138485
     3    1   1s     -0.019841   0.000000   0.000000   0.002832   0.000000  -0.000000  -0.111125  -0.006843   0.000000   0.041416
     4    1   1s     -0.111803   0.000000   0.000000  -0.566865  -0.000000  -0.000000   0.694124   0.304343   0.000000  -1.420213
     5    1   1s     -0.638242   0.000000   0.000000  -1.596547  -0.000000  -0.000000  10.375328   0.661131   0.000000  -2.743460
     6    1   1s      1.068316  -0.000000  -0.000000   0.883512   0.000000  -0.000000  22.936981  -0.355615  -0.000000   1.427132
     7    1   2px     0.119425  -0.000000  -0.000000   0.047832   0.000000  -0.000000   0.040662  -0.023736  -0.000000   0.104018
     8    1   2py    -0.000000  -0.000133  -0.103242   0.000000  -0.111774  -0.000505   0.000000  -0.000000  -0.000000  -0.000000
     9    1   2pz    -0.000000  -0.105801   0.000130   0.000000   0.000140  -0.402134  -0.000000   0.000000   0.000000   0.000000
    10    1   2px    -0.011598   0.000000   0.000000  -0.042049  -0.000000  -0.000000  -0.029064   0.021895   0.000000  -0.101805
    11    1   2py    -0.000000  -0.000017  -0.013595   0.000000  -0.016361  -0.000022  -0.000000   0.000000  -0.000000   0.000000
    12    1   2pz    -0.000000  -0.013481   0.000017   0.000000   0.000021  -0.017141   0.000000  -0.000000  -0.000000  -0.000000
    13    1   2px    -0.050761   0.000000  -0.000000  -0.076400  -0.000000  -0.000000   1.290228   0.039646   0.000000  -0.156879
    14    1   2py     0.000000   0.000077   0.067114  -0.000000   0.142748   0.000166   0.000000  -0.000000   0.000000  -0.000000
    15    1   2pz     0.000000   0.061273  -0.000084  -0.000000  -0.000179   0.132244   0.000000   0.000000   0.000000   0.000000
    16    1   2px     0.624217  -0.000000  -0.000000   1.720044   0.000000   0.000000   6.125848  -0.838355  -0.000000   3.642834
    17    1   2py    -0.000000  -0.000287  -0.229843  -0.000000   1.917458   0.002397   0.000000  -0.000000   0.000000  -0.000000
    18    1   2pz    -0.000000  -0.228420   0.000289   0.000000  -0.002409   1.907631   0.000000  -0.000000   0.000000   0.000000
    19    1   2px    -1.065256   0.000000   0.000000   2.346064   0.000000   0.000000   3.963954  -0.481050  -0.000000   2.084090
    20    1   2py     0.000000   0.000801   0.638219  -0.000000   3.227485   0.003729   0.000000  -0.000000   0.000000  -0.000000
    21    1   2pz     0.000000   0.637472  -0.000802  -0.000000  -0.004055   2.968175   0.000000  -0.000000   0.000000   0.000000
    22    1   3d0    -0.001315   0.000000   0.000000  -0.000322  -0.000000  -0.000000   0.004013  -0.002436   0.000008  -0.003232
    23    1   3d2-   -0.000000  -0.000003  -0.001904   0.000000  -0.000071   0.000002  -0.000000   0.000000   0.000000   0.000000
    24    1   3d1+   -0.000000  -0.002065   0.000002   0.000000   0.000000   0.001275  -0.000000  -0.000000  -0.000000   0.000000
    25    1   3d2+    0.002251  -0.000000  -0.000000   0.000413   0.000000   0.000000  -0.006935  -0.002857   0.000005   0.003761
    26    1   3d1-   -0.000000  -0.000000   0.000000  -0.000000  -0.000000  -0.000000   0.000000  -0.000009  -0.003655  -0.000002
    27    1   3d0     0.007835  -0.000000  -0.000000   0.013215   0.000000   0.000000  -0.042713   0.037276  -0.000103   0.018047
    28    1   3d2-    0.000000   0.000001   0.001540  -0.000000   0.001977   0.000009   0.000000  -0.000000   0.000000   0.000000
    29    1   3d1+    0.000000   0.000477  -0.000002  -0.000000  -0.000002   0.007447  -0.000000   0.000000   0.000000   0.000000
    30    1   3d2+   -0.012894   0.000000   0.000000  -0.021238  -0.000000  -0.000000   0.073588   0.027686  -0.000060  -0.009397
    31    1   3d1-    0.000001   0.000000  -0.000000   0.000002   0.000000  -0.000000  -0.000000   0.000116   0.047461   0.000027
    32    1   3d0    -0.065434   0.000000   0.000000  -0.118721  -0.000000  -0.000000  -0.318659  -0.023103   0.000225  -0.293769
    33    1   3d2-   -0.000000  -0.000031  -0.022441  -0.000000   0.165366   0.000234   0.000000  -0.000000   0.000000  -0.000000
    34    1   3d1+   -0.000000  -0.024290   0.000028  -0.000000  -0.000208   0.185972   0.000000   0.000000   0.000000   0.000000
    35    1   3d2+    0.110567  -0.000000  -0.000000   0.201474   0.000000   0.000000   0.553380  -0.159742   0.000130   0.454901
    36    1   3d1-   -0.000003  -0.000000  -0.000000  -0.000005   0.000000  -0.000000   0.000002  -0.000251  -0.103440  -0.000068
    37    1   3d0    -0.066938   0.000000   0.000000  -0.524827  -0.000000  -0.000000  -0.479116   0.789152  -0.001271  -1.220246
    38    1   3d2-    0.000000   0.000050   0.037374  -0.000000   1.071309   0.001443   0.000000  -0.000000   0.000000  -0.000000
    39    1   3d1+    0.000000   0.039518  -0.000047  -0.000000  -0.001346   1.148274   0.000000  -0.000000   0.000000   0.000000
    40    1   3d2+    0.137056  -0.000000  -0.000000   0.939929   0.000000   0.000000   0.881826  -0.226799  -0.000734   2.362932
    41    1   3d1-    0.000027   0.000000   0.000000   0.000039   0.000000  -0.000000   0.000065   0.001432   0.583903   0.000313
    42    1   4f1+    0.000102  -0.000000   0.000000   0.000355   0.000000  -0.000000  -0.002108  -0.001009   0.000002   0.000487
    43    1   4f1-   -0.000000  -0.000001  -0.000405   0.000000  -0.000293  -0.000003   0.000000  -0.000000  -0.000000   0.000000
    44    1   4f0    -0.000000  -0.000811   0.000001  -0.000000   0.000001  -0.001303   0.000000   0.000000   0.000000   0.000000
    45    1   4f3+    0.000078  -0.000000  -0.000000  -0.000340  -0.000000  -0.000000   0.002894  -0.000639   0.000002  -0.001159
    46    1   4f2-    0.000000   0.000000   0.000000   0.000000   0.000000  -0.000000   0.000000  -0.000003  -0.001228  -0.000001
    47    1   4f3-    0.000000   0.000001   0.001172  -0.000000   0.000553   0.000001   0.000000   0.000000  -0.000000  -0.000000
    48    1   4f2+    0.000000   0.000873  -0.000001   0.000000  -0.000000   0.000685  -0.000000  -0.000000   0.000000  -0.000000
    49    1   4f1+   -0.004987   0.000000   0.000000  -0.008812  -0.000000   0.000000  -0.047695   0.013741  -0.000018  -0.028373
    50    1   4f1-    0.000000   0.000001   0.002132   0.000000  -0.001952  -0.000007  -0.000000   0.000000   0.000000  -0.000000
    51    1   4f0     0.000000   0.006497  -0.000007   0.000000   0.000006  -0.005859  -0.000000  -0.000000  -0.000000  -0.000000
    52    1   4f3+    0.007309  -0.000000  -0.000000   0.011602   0.000000   0.000000   0.061779  -0.003073  -0.000014   0.040426
    53    1   4f2-    0.000001  -0.000000  -0.000000   0.000000  -0.000000  -0.000000   0.000000   0.000023   0.009258   0.000006
    54    1   4f3-   -0.000000  -0.000015  -0.011551  -0.000000   0.005141   0.000008   0.000000  -0.000000   0.000000  -0.000000
    55    1   4f2+   -0.000000  -0.009800   0.000014  -0.000000  -0.000004   0.005376   0.000000   0.000000   0.000000   0.000000
    56    1   4f1+   -0.036782   0.000000   0.000000  -0.111606  -0.000000  -0.000000  -0.060355   0.054044   0.000009  -0.247938
    57    1   4f1-   -0.000000   0.000007   0.001492   0.000000  -0.032457  -0.000047  -0.000000   0.000000  -0.000000   0.000000
    58    1   4f0     0.000000   0.000440  -0.000005   0.000000   0.000100  -0.089374  -0.000000   0.000000  -0.000000  -0.000000
    59    1   4f3+    0.046680  -0.000000  -0.000000   0.146223   0.000000   0.000000   0.083374  -0.075565   0.000007   0.311378
    60    1   4f2-   -0.000001  -0.000000  -0.000000   0.000003   0.000000  -0.000000   0.000008  -0.000009  -0.004557  -0.000013
    61    1   4f3-    0.000000   0.000004   0.002372  -0.000000   0.130999   0.000176   0.000000  -0.000000   0.000000  -0.000000
    62    1   4f2+    0.000000   0.002706  -0.000007  -0.000000  -0.000137   0.114547   0.000000  -0.000000   0.000000   0.000000
    63    1   5g0     0.000675  -0.000000  -0.000000   0.000486   0.000000   0.000000   0.002482   0.001219  -0.000003   0.001347
    64    1   5g2-   -0.000000  -0.000000  -0.000163  -0.000000   0.000530   0.000001   0.000000   0.000000  -0.000000   0.000000
    65    1   5g1+   -0.000000  -0.000298   0.000000  -0.000000  -0.000001   0.001212   0.000000  -0.000000  -0.000000   0.000000
    66    1   5g4+    0.001235  -0.000000  -0.000000   0.000803   0.000000   0.000000   0.004723  -0.002471   0.000005   0.001534
    67    1   5g1-    0.000000   0.000000  -0.000000   0.000000   0.000000  -0.000000   0.000000   0.000002   0.000860   0.000000
    68    1   5g2+   -0.000995   0.000000   0.000000  -0.000706  -0.000000  -0.000000  -0.003674  -0.001211   0.000004  -0.001862
    69    1   5g4-    0.000000   0.000000   0.000468   0.000000  -0.001370  -0.000002  -0.000000  -0.000000  -0.000000  -0.000000
    70    1   5g3+    0.000000   0.000271  -0.000000   0.000000   0.000001  -0.000905  -0.000000   0.000000  -0.000000  -0.000000
    71    1   5g3-   -0.000000  -0.000000   0.000000  -0.000000  -0.000000   0.000000  -0.000000  -0.000007  -0.002879  -0.000002
    72    1   5g0     0.001520  -0.000000   0.000000   0.006497   0.000000   0.000000   0.003568  -0.008032   0.000008   0.014482
    73    1   5g2-    0.000000   0.000003   0.003216   0.000000  -0.004514  -0.000005  -0.000000   0.000000   0.000000   0.000000
    74    1   5g1+    0.000000   0.006767  -0.000009   0.000000   0.000012  -0.010373  -0.000000   0.000000  -0.000000  -0.000000
    75    1   5g4+    0.003043  -0.000000  -0.000000   0.012936   0.000000   0.000000   0.008338   0.000743  -0.000021   0.033731
    76    1   5g1-    0.000000  -0.000000   0.000000   0.000000  -0.000000   0.000000  -0.000001   0.000001  -0.001967  -0.000001
    77    1   5g2+   -0.002213   0.000000   0.000000  -0.009608  -0.000000  -0.000000  -0.005529   0.012171  -0.000022  -0.021920
    78    1   5g4-   -0.000000  -0.000011  -0.009055  -0.000000   0.012244   0.000017   0.000000  -0.000000   0.000000  -0.000000
    79    1   5g3+   -0.000000  -0.006244   0.000009  -0.000000  -0.000011   0.009616   0.000000  -0.000000   0.000000   0.000000
    80    1   5g3-    0.000000   0.000000  -0.000000   0.000000   0.000000  -0.000000   0.000002   0.000030   0.011552   0.000008
    81    2   1s     -0.010382   0.000000   0.000000  -0.004539  -0.000000   0.000000   0.009095  -0.000447  -0.000000   0.006062
    82    2   1s     -0.150365   0.000000   0.000000  -0.106211  -0.000000  -0.000000   0.195176  -0.028577  -0.000000   0.138485
    83    2   1s     -0.019841   0.000000  -0.000000   0.002832   0.000000  -0.000000   0.111125  -0.006843   0.000000   0.041416
    84    2   1s     -0.111803   0.000000   0.000000  -0.566865  -0.000000  -0.000000  -0.694124   0.304343   0.000000  -1.420213
    85    2   1s     -0.638242   0.000000   0.000000  -1.596547  -0.000000  -0.000000 -10.375328   0.661131   0.000000  -2.743460
    86    2   1s      1.068316  -0.000000  -0.000000   0.883512   0.000000   0.000000 -22.936981  -0.355615  -0.000000   1.427132
    87    2   2px    -0.119425   0.000000   0.000000  -0.047832  -0.000000  -0.000000   0.040662   0.023736   0.000000  -0.104018
    88    2   2py    -0.000000  -0.000133  -0.103242  -0.000000   0.111774   0.000505  -0.000000  -0.000000  -0.000000  -0.000000
    89    2   2pz    -0.000000  -0.105801   0.000130  -0.000000  -0.000140   0.402134  -0.000000  -0.000000  -0.000000  -0.000000
    90    2   2px     0.011598  -0.000000  -0.000000   0.042049   0.000000   0.000000  -0.029064  -0.021895  -0.000000   0.101805
    91    2   2py    -0.000000  -0.000017  -0.013595  -0.000000   0.016361   0.000022   0.000000   0.000000   0.000000   0.000000
    92    2   2pz    -0.000000  -0.013481   0.000017   0.000000  -0.000021   0.017141   0.000000  -0.000000   0.000000   0.000000
    93    2   2px     0.050761  -0.000000  -0.000000   0.076400   0.000000  -0.000000   1.290228  -0.039646  -0.000000   0.156879
    94    2   2py     0.000000   0.000077   0.067114   0.000000  -0.142748  -0.000166  -0.000000   0.000000  -0.000000   0.000000
    95    2   2pz     0.000000   0.061273  -0.000084   0.000000   0.000179  -0.132244  -0.000000   0.000000  -0.000000  -0.000000
    96    2   2px    -0.624217   0.000000   0.000000  -1.720044  -0.000000  -0.000000   6.125848   0.838355   0.000000  -3.642834
    97    2   2py    -0.000000  -0.000287  -0.229843   0.000000  -1.917458  -0.002397  -0.000000   0.000000  -0.000000   0.000000
    98    2   2pz    -0.000000  -0.228420   0.000289   0.000000   0.002409  -1.907631  -0.000000   0.000000  -0.000000  -0.000000
    99    2   2px     1.065256  -0.000000  -0.000000  -2.346064  -0.000000  -0.000000   3.963954   0.481050   0.000000  -2.084090
   100    2   2py     0.000000   0.000801   0.638219   0.000000  -3.227485  -0.003729  -0.000000   0.000000  -0.000000   0.000000
   101    2   2pz     0.000000   0.637472  -0.000802   0.000000   0.004055  -2.968175  -0.000000   0.000000  -0.000000  -0.000000
   102    2   3d0    -0.001315   0.000000   0.000000  -0.000322  -0.000000  -0.000000  -0.004013  -0.002436   0.000008  -0.003232
   103    2   3d2-    0.000000   0.000003   0.001904  -0.000000  -0.000071   0.000002  -0.000000  -0.000000  -0.000000  -0.000000
   104    2   3d1+    0.000000   0.002065  -0.000002  -0.000000   0.000000   0.001275   0.000000   0.000000  -0.000000  -0.000000
   105    2   3d2+    0.002251  -0.000000  -0.000000   0.000413   0.000000  -0.000000   0.006935  -0.002857   0.000005   0.003761
   106    2   3d1-   -0.000000   0.000000   0.000000  -0.000000  -0.000000   0.000000  -0.000000  -0.000009  -0.003655  -0.000002
   107    2   3d0     0.007835  -0.000000  -0.000000   0.013215   0.000000   0.000000   0.042713   0.037276  -0.000103   0.018047
   108    2   3d2-    0.000000  -0.000001  -0.001540  -0.000000   0.001977   0.000009   0.000000  -0.000000   0.000000   0.000000
   109    2   3d1+   -0.000000  -0.000477   0.000002  -0.000000  -0.000002   0.007447   0.000000   0.000000   0.000000   0.000000
   110    2   3d2+   -0.012894   0.000000   0.000000  -0.021238  -0.000000  -0.000000  -0.073588   0.027686  -0.000060  -0.009397
   111    2   3d1-    0.000001  -0.000000   0.000000   0.000002   0.000000  -0.000000   0.000000   0.000116   0.047461   0.000027
   112    2   3d0    -0.065434   0.000000   0.000000  -0.118721  -0.000000  -0.000000   0.318659  -0.023103   0.000225  -0.293769
   113    2   3d2-    0.000000   0.000031   0.022441  -0.000000   0.165366   0.000234   0.000000  -0.000000   0.000000  -0.000000
   114    2   3d1+    0.000000   0.024290  -0.000028  -0.000000  -0.000208   0.185972   0.000000   0.000000   0.000000   0.000000
   115    2   3d2+    0.110567  -0.000000  -0.000000   0.201474   0.000000   0.000000  -0.553380  -0.159742   0.000130   0.454901
   116    2   3d1-   -0.000003  -0.000000   0.000000  -0.000005  -0.000000   0.000000  -0.000002  -0.000251  -0.103440  -0.000068
   117    2   3d0    -0.066938   0.000000   0.000000  -0.524827  -0.000000  -0.000000   0.479116   0.789152  -0.001271  -1.220246
   118    2   3d2-    0.000000  -0.000050  -0.037374  -0.000000   1.071309   0.001443   0.000000  -0.000000   0.000000  -0.000000
   119    2   3d1+   -0.000000  -0.039518   0.000047  -0.000000  -0.001346   1.148274   0.000000   0.000000   0.000000   0.000000
   120    2   3d2+    0.137056  -0.000000  -0.000000   0.939929   0.000000   0.000000  -0.881826  -0.226799  -0.000734   2.362932
   121    2   3d1-    0.000027   0.000000  -0.000000   0.000039  -0.000000   0.000000  -0.000065   0.001432   0.583903   0.000313
   122    2   4f1+   -0.000102   0.000000   0.000000  -0.000355  -0.000000  -0.000000  -0.002108   0.001009  -0.000002  -0.000487
   123    2   4f1-   -0.000000  -0.000001  -0.000405  -0.000000   0.000293   0.000003  -0.000000  -0.000000   0.000000  -0.000000
   124    2   4f0    -0.000000  -0.000811   0.000001  -0.000000  -0.000001   0.001303   0.000000   0.000000   0.000000  -0.000000
   125    2   4f3+   -0.000078   0.000000  -0.000000   0.000340   0.000000   0.000000   0.002894   0.000639  -0.000002   0.001159
   126    2   4f2-   -0.000000  -0.000000   0.000000  -0.000000   0.000000  -0.000000   0.000000   0.000003   0.001228   0.000001
   127    2   4f3-    0.000000   0.000001   0.001172   0.000000  -0.000553  -0.000001   0.000000  -0.000000   0.000000   0.000000
   128    2   4f2+    0.000000   0.000873  -0.000001  -0.000000   0.000000  -0.000685  -0.000000  -0.000000   0.000000   0.000000
   129    2   4f1+    0.004987  -0.000000  -0.000000   0.008812   0.000000   0.000000  -0.047695  -0.013741   0.000018   0.028373
   130    2   4f1-    0.000000   0.000001   0.002132  -0.000000   0.001952   0.000007   0.000000  -0.000000   0.000000   0.000000
   131    2   4f0     0.000000   0.006497  -0.000007  -0.000000  -0.000006   0.005859   0.000000  -0.000000   0.000000   0.000000
   132    2   4f3+   -0.007309   0.000000   0.000000  -0.011602  -0.000000  -0.000000   0.061779   0.003073   0.000014  -0.040426
   133    2   4f2-   -0.000001   0.000000  -0.000000  -0.000000  -0.000000   0.000000   0.000000  -0.000023  -0.009258  -0.000006
   134    2   4f3-   -0.000000  -0.000015  -0.011551   0.000000  -0.005141  -0.000008  -0.000000   0.000000  -0.000000  -0.000000
   135    2   4f2+   -0.000000  -0.009800   0.000014   0.000000   0.000004  -0.005376  -0.000000   0.000000  -0.000000  -0.000000
   136    2   4f1+    0.036782  -0.000000  -0.000000   0.111606   0.000000   0.000000  -0.060355  -0.054044  -0.000009   0.247938
   137    2   4f1-    0.000000   0.000007   0.001492  -0.000000   0.032457   0.000047   0.000000   0.000000  -0.000000  -0.000000
   138    2   4f0     0.000000   0.000440  -0.000005  -0.000000  -0.000100   0.089374   0.000000   0.000000   0.000000   0.000000
   139    2   4f3+   -0.046680   0.000000   0.000000  -0.146223  -0.000000  -0.000000   0.083374   0.075565  -0.000007  -0.311378
   140    2   4f2-    0.000001  -0.000000  -0.000000  -0.000003   0.000000  -0.000000   0.000008   0.000009   0.004557   0.000013
   141    2   4f3-   -0.000000   0.000004   0.002372   0.000000  -0.130999  -0.000176  -0.000000   0.000000  -0.000000   0.000000
   142    2   4f2+    0.000000   0.002706  -0.000007   0.000000   0.000137  -0.114547  -0.000000  -0.000000  -0.000000  -0.000000
   143    2   5g0     0.000675  -0.000000  -0.000000   0.000486   0.000000   0.000000  -0.002482   0.001219  -0.000003   0.001347
   144    2   5g2-    0.000000   0.000000   0.000163  -0.000000   0.000530   0.000001   0.000000  -0.000000  -0.000000   0.000000
   145    2   5g1+    0.000000   0.000298  -0.000000  -0.000000  -0.000001   0.001212  -0.000000   0.000000  -0.000000  -0.000000
   146    2   5g4+    0.001235  -0.000000   0.000000   0.000803   0.000000   0.000000  -0.004723  -0.002471   0.000005   0.001534
   147    2   5g1-    0.000000  -0.000000   0.000000   0.000000  -0.000000   0.000000  -0.000000   0.000002   0.000860   0.000000
   148    2   5g2+   -0.000995   0.000000  -0.000000  -0.000706  -0.000000   0.000000   0.003674  -0.001211   0.000004  -0.001862
   149    2   5g4-   -0.000000  -0.000000  -0.000468   0.000000  -0.001370  -0.000002  -0.000000   0.000000   0.000000  -0.000000
   150    2   5g3+   -0.000000  -0.000271   0.000000   0.000000   0.000001  -0.000905   0.000000  -0.000000  -0.000000   0.000000
   151    2   5g3-   -0.000000   0.000000  -0.000000  -0.000000   0.000000   0.000000   0.000000  -0.000007  -0.002879  -0.000002
   152    2   5g0     0.001520  -0.000000   0.000000   0.006497   0.000000   0.000000  -0.003568  -0.008032   0.000008   0.014482
   153    2   5g2-   -0.000000  -0.000003  -0.003216   0.000000  -0.004514  -0.000005  -0.000000   0.000000  -0.000000  -0.000000
   154    2   5g1+   -0.000000  -0.006767   0.000009   0.000000   0.000012  -0.010373  -0.000000  -0.000000  -0.000000  -0.000000
   155    2   5g4+    0.003043  -0.000000  -0.000000   0.012936   0.000000   0.000000  -0.008338   0.000743  -0.000021   0.033731
   156    2   5g1-    0.000000  -0.000000  -0.000000   0.000000  -0.000000  -0.000000   0.000001   0.000001  -0.001967  -0.000001
   157    2   5g2+   -0.002213   0.000000   0.000000  -0.009608  -0.000000  -0.000000   0.005529   0.012171  -0.000022  -0.021920
   158    2   5g4-    0.000000   0.000011   0.009055  -0.000000   0.012244   0.000017   0.000000  -0.000000   0.000000   0.000000
   159    2   5g3+    0.000000   0.006244  -0.000009  -0.000000  -0.000011   0.009616   0.000000   0.000000   0.000000   0.000000
   160    2   5g3-    0.000000  -0.000000   0.000000   0.000000   0.000000   0.000000  -0.000002   0.000030   0.011552   0.000008

 Orb. Numbers:         21.1       22.1       23.1       24.1       25.1       26.1       27.1       28.1       29.1       30.1
 Orb. Energies:       0.538972   0.551276   0.556345   0.564696   0.571672   0.576831   0.577628   0.669732   0.679380   0.727825

    Nr  Atom  Typ     Orbital Coefficients:
     1    1   1s      0.000000  -0.000000   0.012850  -0.000000  -0.000000  -0.000000   0.002908  -0.000000   0.000000  -0.002316
     2    1   1s      0.000000   0.000000  -0.023657   0.000000   0.000000   0.000000  -0.007638   0.000000   0.000000   0.303764
     3    1   1s     -0.000000  -0.000000   0.101099  -0.000000  -0.000000  -0.000000   0.027701  -0.000000  -0.000000  -0.216804
     4    1   1s      0.000000   0.000000  -0.378484   0.000000   0.000000   0.000000  -0.126882   0.000000   0.000000   1.528409
     5    1   1s     -0.000000  -0.000000   2.031664  -0.000000  -0.000000   0.000000  -0.352976   0.000000   0.000000  24.793596
     6    1   1s      0.000000   0.000000  -0.220913   0.000000   0.000000   0.000000  -0.953805   0.000000   0.000000  24.700814
     7    1   2px     0.000000   0.000000  -0.104163   0.000000   0.000000  -0.000000  -0.026209   0.000000   0.000000   0.031096
     8    1   2py     0.285910   0.000447   0.000000   0.000156   0.132611  -0.000000  -0.000000  -0.000510  -0.404966   0.000000
     9    1   2pz    -0.000359   0.355729   0.000000   0.124431  -0.000167   0.000000   0.000000  -0.405752   0.000509  -0.000000
    10    1   2px     0.000000   0.000000  -0.018320   0.000000   0.000000  -0.000000  -0.001738  -0.000000   0.000000  -0.064754
    11    1   2py    -0.068283  -0.000089  -0.000000  -0.000028  -0.023659   0.000000   0.000000   0.000076   0.062108  -0.000000
    12    1   2pz     0.000086  -0.070564  -0.000000  -0.022660   0.000030  -0.000000  -0.000000   0.060438  -0.000078  -0.000000
    13    1   2px     0.000000   0.000000  -0.356117   0.000000   0.000000   0.000000  -0.158698   0.000000   0.000000   2.805247
    14    1   2py     0.830505   0.001115   0.000000  -0.000168  -0.138055   0.000000   0.000000  -0.000672  -0.525169   0.000000
    15    1   2pz    -0.001043   0.887604   0.000000  -0.134069   0.000173  -0.000000   0.000000  -0.535229   0.000660   0.000000
    16    1   2px     0.000000  -0.000000   0.323674  -0.000000   0.000000   0.000000  -0.347765   0.000000   0.000000  13.400977
    17    1   2py     9.310190   0.012219   0.000000  -0.001074  -0.852073   0.000000   0.000000   0.001103   0.884280  -0.000000
    18    1   2pz    -0.011698   9.725300   0.000000  -0.854809   0.001071  -0.000000   0.000000   0.877796  -0.001111  -0.000000
    19    1   2px     0.000000  -0.000000   0.107854  -0.000000   0.000000   0.000000  -0.116078   0.000000   0.000000   3.565558
    20    1   2py     2.715408   0.003342   0.000000   0.000410   0.324365  -0.000000   0.000000  -0.000400  -0.318685  -0.000000
    21    1   2pz    -0.003412   2.659942   0.000000   0.325992  -0.000408   0.000000   0.000000  -0.318352   0.000400  -0.000000
    22    1   3d0     0.000000   0.000000  -0.002563   0.000000   0.000000   0.000002  -0.001799   0.000000   0.000000   0.011071
    23    1   3d2-   -0.003418  -0.000005  -0.000000   0.000002   0.001313  -0.000000  -0.000000  -0.000002  -0.000615  -0.000000
    24    1   3d1+    0.000004  -0.004271  -0.000000   0.001249  -0.000002   0.000000  -0.000000  -0.001268   0.000001  -0.000000
    25    1   3d2+   -0.000000  -0.000000   0.004895  -0.000000  -0.000000   0.000001   0.001099  -0.000000  -0.000000  -0.019445
    26    1   3d1-    0.000000   0.000000   0.000001   0.000000  -0.000000  -0.001031  -0.000003  -0.000000   0.000000  -0.000000
    27    1   3d0    -0.000000  -0.000000   0.008573  -0.000000  -0.000000  -0.000039   0.019837  -0.000000  -0.000000  -0.075323
    28    1   3d2-    0.027440   0.000035   0.000000   0.000025   0.021015  -0.000000   0.000000  -0.000062  -0.046394   0.000000
    29    1   3d1+   -0.000034   0.027579   0.000000   0.020213  -0.000026   0.000000   0.000000  -0.049174   0.000058   0.000000
    30    1   3d2+    0.000000   0.000000  -0.019387   0.000000   0.000000  -0.000023   0.001253   0.000000   0.000000   0.133376
    31    1   3d1-    0.000000  -0.000000  -0.000006  -0.000000   0.000000   0.017962   0.000045   0.000000   0.000000   0.000004
    32    1   3d0    -0.000000  -0.000000   0.030513  -0.000000  -0.000000  -0.000531   0.241853  -0.000000  -0.000000  -0.653813
    33    1   3d2-    0.996291   0.001320   0.000000  -0.000055  -0.044259   0.000000   0.000000   0.000013   0.019397  -0.000000
    34    1   3d1+   -0.001252   1.050776   0.000000  -0.043610   0.000056  -0.000000   0.000000   0.009954  -0.000024  -0.000000
    35    1   3d2+    0.000000   0.000000  -0.152932   0.000000   0.000000  -0.000307   0.058594   0.000000   0.000000   1.160119
    36    1   3d1-    0.000000   0.000000  -0.000126  -0.000000   0.000000   0.244164   0.000600  -0.000000  -0.000000   0.000035
    37    1   3d0     0.000000   0.000000  -1.056394   0.000000   0.000000  -0.004378   1.603635  -0.000000   0.000000  -1.061011
    38    1   3d2-    4.646426   0.005997   0.000000   0.001710   1.361536  -0.000000   0.000000   0.000792   0.620351  -0.000000
    39    1   3d1+   -0.005838   4.773068   0.000000   1.360739  -0.001711   0.000000   0.000000   0.630541  -0.000779  -0.000000
    40    1   3d2+   -0.000000  -0.000000   1.052459  -0.000000  -0.000000  -0.002528   1.167884  -0.000000  -0.000000   1.975323
    41    1   3d1-    0.000000  -0.000000  -0.000977  -0.000000   0.000000   2.011679   0.004957  -0.000000  -0.000000   0.000173
    42    1   4f1+    0.000000  -0.000000   0.000075   0.000000  -0.000000  -0.000003   0.001227  -0.000000  -0.000000  -0.003523
    43    1   4f1-    0.000714   0.000002   0.000000  -0.000001  -0.001002   0.000000  -0.000000   0.000002   0.002468  -0.000000
    44    1   4f0    -0.000002   0.001789   0.000000  -0.002766   0.000003  -0.000000  -0.000000   0.006332  -0.000008  -0.000000
    45    1   4f3+    0.000000   0.000000  -0.000717   0.000000  -0.000000  -0.000002   0.000533   0.000000   0.000000   0.004590
    46    1   4f2-    0.000000   0.000000  -0.000001  -0.000000   0.000000   0.001352   0.000003  -0.000000  -0.000000   0.000000
    47    1   4f3-   -0.001525  -0.000002  -0.000000   0.000006   0.004718  -0.000000   0.000000  -0.000013  -0.010660   0.000000
    48    1   4f2+    0.000001  -0.001617   0.000000   0.003896  -0.000005   0.000000   0.000000  -0.008663   0.000012   0.000000
    49    1   4f1+   -0.000000  -0.000000   0.027760  -0.000000  -0.000000  -0.000018   0.015784  -0.000000  -0.000000  -0.093903
    50    1   4f1-   -0.021234  -0.000025  -0.000000   0.000008   0.005553  -0.000000  -0.000000  -0.000020  -0.011107   0.000000
    51    1   4f0     0.000065  -0.059408  -0.000000   0.013125  -0.000017   0.000000  -0.000000  -0.022053   0.000034   0.000000
    52    1   4f3+    0.000000   0.000000  -0.039326   0.000000   0.000000  -0.000014  -0.006007   0.000000   0.000000   0.122435
    53    1   4f2-   -0.000000  -0.000000  -0.000005  -0.000000   0.000000   0.009058   0.000022   0.000000   0.000000   0.000002
    54    1   4f3-    0.087885   0.000122   0.000000  -0.000025  -0.020188   0.000000   0.000000   0.000037   0.032137  -0.000000
    55    1   4f2+   -0.000093   0.079386   0.000000  -0.016405   0.000020  -0.000000   0.000000   0.023958  -0.000027  -0.000000
    56    1   4f1+    0.000000   0.000000  -0.259020   0.000000   0.000000  -0.001033   0.372966  -0.000000   0.000000  -0.133681
    57    1   4f1-   -0.152920  -0.000206  -0.000000  -0.000120  -0.091385   0.000000   0.000000  -0.000021  -0.039372   0.000000
    58    1   4f0     0.000471  -0.379783  -0.000000  -0.222031   0.000281  -0.000000  -0.000000  -0.115597   0.000121   0.000000
    59    1   4f3+   -0.000000  -0.000000   0.163145  -0.000000  -0.000000  -0.000800   0.349894  -0.000000  -0.000000   0.222375
    60    1   4f2-    0.000000   0.000000  -0.000264  -0.000000   0.000000   0.520182   0.001279  -0.000000  -0.000000   0.000077
    61    1   4f3-    0.574811   0.000745   0.000000   0.000436   0.346319  -0.000000  -0.000000   0.000259   0.201227  -0.000000
    62    1   4f2+   -0.000581   0.484427   0.000000   0.283477  -0.000351   0.000000   0.000000   0.168511  -0.000231  -0.000000
    63    1   5g0     0.000000   0.000000  -0.005616   0.000000   0.000000  -0.000014   0.004755   0.000000  -0.000000   0.004854
    64    1   5g2-    0.000076  -0.000000   0.000000   0.000003   0.002391  -0.000000  -0.000000   0.000005   0.003665  -0.000000
    65    1   5g1+   -0.000000  -0.000250   0.000000   0.005195  -0.000006   0.000000   0.000000   0.007899  -0.000010  -0.000000
    66    1   5g4+    0.000000   0.000000  -0.007269   0.000000  -0.000000   0.000018  -0.009011   0.000000   0.000000   0.008453
    67    1   5g1-    0.000000   0.000000  -0.000002  -0.000000   0.000000   0.003645   0.000009  -0.000000  -0.000000   0.000001
    68    1   5g2+   -0.000000  -0.000000   0.007712  -0.000000  -0.000000   0.000014  -0.003889  -0.000000  -0.000000  -0.007025
    69    1   5g4-   -0.000400   0.000000  -0.000000  -0.000008  -0.006671   0.000000   0.000000  -0.000013  -0.009772   0.000000
    70    1   5g3+    0.000001   0.000078  -0.000000  -0.004747   0.000006  -0.000000  -0.000000  -0.007036   0.000009   0.000000
    71    1   5g3-   -0.000000   0.000000   0.000005   0.000000  -0.000000  -0.010168  -0.000025   0.000000   0.000000  -0.000001
    72    1   5g0    -0.000000  -0.000000   0.023186  -0.000000  -0.000000   0.000102  -0.038378   0.000000   0.000000   0.007491
    73    1   5g2-   -0.023146  -0.000030  -0.000000  -0.000018  -0.017192   0.000000   0.000000  -0.000037  -0.029288   0.000000
    74    1   5g1+    0.000062  -0.051805  -0.000000  -0.037571   0.000046  -0.000000  -0.000000  -0.061914   0.000078   0.000000
    75    1   5g4+   -0.000000  -0.000000   0.020518  -0.000000   0.000000  -0.000129   0.055552   0.000000  -0.000000   0.021212
    76    1   5g1-    0.000000  -0.000000   0.000012   0.000000  -0.000000  -0.025774  -0.000060   0.000000  -0.000000  -0.000003
    77    1   5g2+    0.000000   0.000000  -0.030221   0.000000   0.000000  -0.000102   0.034690   0.000000   0.000000  -0.012373
    78    1   5g4-    0.062131   0.000082   0.000000   0.000062   0.048944  -0.000000  -0.000000   0.000097   0.077459  -0.000000
    79    1   5g3+   -0.000056   0.045998   0.000000   0.034752  -0.000047   0.000000   0.000000   0.054521  -0.000069  -0.000000
    80    1   5g3-   -0.000000  -0.000000  -0.000035  -0.000000   0.000000   0.072533   0.000180  -0.000000  -0.000000   0.000009
    81    2   1s      0.000000   0.000000  -0.012850   0.000000   0.000000   0.000000  -0.002908  -0.000000  -0.000000   0.002316
    82    2   1s     -0.000000  -0.000000   0.023657  -0.000000  -0.000000  -0.000000   0.007638  -0.000000  -0.000000  -0.303764
    83    2   1s      0.000000   0.000000  -0.101099   0.000000   0.000000   0.000000  -0.027701   0.000000   0.000000   0.216804
    84    2   1s     -0.000000  -0.000000   0.378484  -0.000000  -0.000000  -0.000000   0.126882  -0.000000   0.000000  -1.528409
    85    2   1s      0.000000   0.000000  -2.031664   0.000000   0.000000  -0.000000   0.352976  -0.000000  -0.000000 -24.793596
    86    2   1s     -0.000000  -0.000000   0.220913  -0.000000  -0.000000  -0.000000   0.953805  -0.000000  -0.000000 -24.700814
    87    2   2px     0.000000   0.000000  -0.104163   0.000000   0.000000  -0.000000  -0.026209  -0.000000   0.000000   0.031096
    88    2   2py    -0.285910  -0.000447  -0.000000   0.000156   0.132611  -0.000000  -0.000000  -0.000510  -0.404966   0.000000
    89    2   2pz     0.000359  -0.355729  -0.000000   0.124431  -0.000167   0.000000  -0.000000  -0.405752   0.000509  -0.000000
    90    2   2px     0.000000   0.000000  -0.018320   0.000000   0.000000  -0.000000  -0.001738   0.000000  -0.000000  -0.064754
    91    2   2py     0.068283   0.000089   0.000000  -0.000028  -0.023659   0.000000   0.000000   0.000076   0.062108  -0.000000
    92    2   2pz    -0.000086   0.070564   0.000000  -0.022660   0.000030  -0.000000   0.000000   0.060438  -0.000078  -0.000000
    93    2   2px     0.000000   0.000000  -0.356117   0.000000   0.000000   0.000000  -0.158698   0.000000   0.000000   2.805247
    94    2   2py    -0.830505  -0.001115  -0.000000  -0.000168  -0.138055   0.000000  -0.000000  -0.000672  -0.525169   0.000000
    95    2   2pz     0.001043  -0.887604  -0.000000  -0.134069   0.000173  -0.000000  -0.000000  -0.535229   0.000660   0.000000
    96    2   2px     0.000000   0.000000   0.323674  -0.000000  -0.000000   0.000000  -0.347765   0.000000   0.000000  13.400977
    97    2   2py    -9.310190  -0.012219  -0.000000  -0.001074  -0.852073   0.000000  -0.000000   0.001103   0.884280   0.000000
    98    2   2pz     0.011698  -9.725300  -0.000000  -0.854809   0.001071  -0.000000  -0.000000   0.877796  -0.001111   0.000000
    99    2   2px     0.000000   0.000000   0.107854  -0.000000  -0.000000   0.000000  -0.116078   0.000000   0.000000   3.565558
   100    2   2py    -2.715408  -0.003342  -0.000000   0.000410   0.324365  -0.000000  -0.000000  -0.000400  -0.318685   0.000000
   101    2   2pz     0.003412  -2.659942  -0.000000   0.325992  -0.000408   0.000000  -0.000000  -0.318352   0.000400   0.000000
   102    2   3d0    -0.000000  -0.000000   0.002563  -0.000000  -0.000000  -0.000002   0.001799   0.000000  -0.000000  -0.011071
[...]
    33    1   3d2-    0.420393  -0.004359  -3.460620  -0.000000   0.000000   0.004050   3.223938   0.000000   0.000000  -0.000000
    34    1   3d1+   -0.000528  -3.469232   0.004348  -0.000000  -0.000000   3.223506  -0.004051   0.000000  -0.000000   0.000000
    35    1   3d2+   -0.000000   0.000000  -0.000000  -2.702702  -1.549887  -0.000000  -0.000000   2.864893  -0.741432  -1.291188
    36    1   3d1-   -0.000000   0.000000  -0.000000  -0.000099   0.000002   0.000000   0.000000  -0.000006   0.000000   0.000000
    37    1   3d0     0.000000   0.000000  -0.000000   0.301262   0.345400  -0.000000  -0.000000  -0.255478   0.004217   0.122141
    38    1   3d2-    0.200124  -0.001408  -1.115944   0.000000   0.000000   0.000901   0.718040   0.000000   0.000000  -0.000000
    39    1   3d1+   -0.000251  -1.120338   0.001402  -0.000000  -0.000000   0.717158  -0.000902   0.000000  -0.000000   0.000000
    40    1   3d2+   -0.000000   0.000000   0.000000  -0.532948  -0.598615  -0.000000  -0.000000   0.442465  -0.007319  -0.211664
    41    1   3d1-    0.000000   0.000000   0.000000  -0.000014  -0.000000  -0.000000  -0.000000  -0.000000  -0.000000  -0.000000
    42    1   4f1+   -0.000000  -0.000000  -0.000000  -0.287218  -0.026145  -0.000000   0.000000  -0.609263  -0.051297  -0.046709
    43    1   4f1-   -0.085611  -0.000200  -0.163555  -0.000000  -0.000000  -0.000201  -0.161034   0.000000  -0.000000  -0.000000
    44    1   4f0     0.000263  -0.404335   0.000503  -0.000000   0.000000  -0.394978   0.000496   0.000000  -0.000000  -0.000000
    45    1   4f3+   -0.000000   0.000000   0.000000   0.403845   0.032066  -0.000000  -0.000000   0.788336   0.066328   0.060297
    46    1   4f2-    0.000000   0.000000   0.000000   0.000051  -0.000003  -0.000000  -0.000000   0.000003   0.000000  -0.000000
    47    1   4f3-    0.337529   0.000809   0.642959   0.000000   0.000000   0.000786   0.626197  -0.000000  -0.000000   0.000000
    48    1   4f2+   -0.000349   0.525942  -0.000664   0.000000  -0.000000   0.510943  -0.000644  -0.000000   0.000000  -0.000000
    49    1   4f1+    0.000000  -0.000000   0.000000   0.774065   0.633828   0.000000  -0.000000  -0.561932  -0.080519   0.486118
    50    1   4f1-    0.072285   0.000460   0.369763   0.000000  -0.000000  -0.000582  -0.462597  -0.000000   0.000000   0.000000
    51    1   4f0    -0.000222   0.909242  -0.001138   0.000000   0.000000  -1.133152   0.001424  -0.000000   0.000000   0.000000
    52    1   4f3+   -0.000000  -0.000000  -0.000000  -1.056943  -0.817150  -0.000000   0.000000   0.725043   0.103860  -0.627569
    53    1   4f2-   -0.000000   0.000000  -0.000000  -0.000089   0.000002   0.000000   0.000000  -0.000001  -0.000000   0.000000
    54    1   4f3-   -0.283485  -0.001811  -1.440229  -0.000000   0.000000   0.002250   1.790412   0.000000  -0.000000   0.000000
    55    1   4f2+    0.000293  -1.177208   0.001482  -0.000000  -0.000000   1.462393  -0.001836   0.000000  -0.000000  -0.000000
    56    1   4f1+   -0.000000   0.000000  -0.000000   0.370426   0.213728  -0.000000   0.000000  -0.128754   0.118452   0.142020
    57    1   4f1-   -0.122503   0.000236   0.188169   0.000000  -0.000000  -0.000161  -0.128766  -0.000000  -0.000000   0.000000
    58    1   4f0     0.000377   0.463417  -0.000579   0.000000   0.000000  -0.315423   0.000396  -0.000000   0.000000  -0.000000
    59    1   4f3+    0.000000   0.000000   0.000000  -0.503965  -0.276328   0.000000  -0.000000   0.164703  -0.152793  -0.183396
    60    1   4f2-   -0.000000   0.000000   0.000000  -0.000040  -0.000001   0.000000   0.000000  -0.000002   0.000000  -0.000000
    61    1   4f3-    0.475411  -0.000922  -0.731357  -0.000000   0.000000   0.000627   0.499535   0.000000  -0.000000  -0.000000
    62    1   4f2+   -0.000488  -0.599346   0.000752  -0.000000  -0.000000   0.407550  -0.000513   0.000000  -0.000000   0.000000
    63    1   5g0    -0.000000  -0.000000  -0.000000   0.118673  -0.191911  -0.000000   0.000000   0.196149   0.051416  -0.068775
    64    1   5g2-    0.163506  -0.000144  -0.123132  -0.000000  -0.000000  -0.000383  -0.304530   0.000000   0.000000  -0.000000
    65    1   5g1+   -0.000436  -0.266362   0.000328  -0.000000   0.000000  -0.646149   0.000812  -0.000000  -0.000000   0.000000
    66    1   5g4+   -0.000000   0.000000  -0.000000   0.257331  -0.379025  -0.000000   0.000000   0.387824   0.101521  -0.135608
    67    1   5g1-   -0.000000  -0.000000  -0.000000  -0.000012   0.000000  -0.000000  -0.000000  -0.000001  -0.000000  -0.000000
    68    1   5g2+    0.000000   0.000000   0.000000  -0.181223   0.286189   0.000000  -0.000000  -0.292594  -0.076670   0.102521
    69    1   5g4-   -0.435399   0.000428   0.338100   0.000000   0.000000   0.001012   0.805607  -0.000000  -0.000000   0.000000
    70    1   5g3+    0.000389   0.240831  -0.000311   0.000000  -0.000000   0.569796  -0.000716   0.000000   0.000000  -0.000000
    71    1   5g3-    0.000000   0.000000   0.000000   0.000031  -0.000001   0.000000   0.000000   0.000001   0.000000   0.000000
    72    1   5g0     0.000000  -0.000000   0.000000  -0.211697  -0.031841   0.000000  -0.000000  -0.061350   0.037570  -0.083691
    73    1   5g2-   -0.077330   0.000259   0.212699   0.000000  -0.000000  -0.000097  -0.077364  -0.000000   0.000000  -0.000000
    74    1   5g1+    0.000206   0.455401  -0.000567   0.000000   0.000000  -0.164247   0.000206  -0.000000   0.000000   0.000000
    75    1   5g4+   -0.000000   0.000000   0.000000  -0.457300  -0.062055   0.000000  -0.000000  -0.121268   0.073995  -0.165053
    76    1   5g1-    0.000000  -0.000000   0.000000   0.000020  -0.000000   0.000000   0.000000   0.000000   0.000000   0.000000
    77    1   5g2+   -0.000000   0.000000  -0.000000   0.323064   0.047328  -0.000000   0.000000   0.091508  -0.055988   0.124761
    78    1   5g4-    0.206098  -0.000722  -0.572025  -0.000000   0.000000   0.000258   0.204988   0.000000  -0.000000   0.000000
    79    1   5g3+   -0.000184  -0.406083   0.000516  -0.000000  -0.000000   0.144999  -0.000182   0.000000  -0.000000  -0.000000
    80    1   5g3-   -0.000000   0.000000  -0.000000  -0.000053   0.000001  -0.000000   0.000000  -0.000000  -0.000000  -0.000000
    81    2   1s      0.000000  -0.000000   0.000000   0.028581  -0.133081   0.000000  -0.000000   0.373869  -8.406689   8.587257
    82    2   1s      0.000000   0.000000   0.000000  -0.082098   0.348497  -0.000000  -0.000000   1.049351 -25.334023  26.025982
    83    2   1s      0.000000   0.000000   0.000000  -1.272445   1.794727   0.000000   0.000000   2.792836   4.826752  -4.605726
    84    2   1s     -0.000000  -0.000000  -0.000000   9.953121   1.895144   0.000000   0.000000 -15.695004  19.223857 -15.010315
    85    2   1s     -0.000000  -0.000000  -0.000000  10.744333  -1.016074  -0.000000  -0.000000 -13.801159   7.884198  -7.621028
    86    2   1s     -0.000000  -0.000000  -0.000000   3.378074  -0.220460  -0.000000  -0.000000  -3.901066   0.179203  -0.168698
    87    2   2px    -0.000000   0.000000  -0.000000   0.713112   1.603879   0.000000   0.000000  -5.164456  -0.718009   0.969350
    88    2   2py    -0.745590   0.001746   1.377447  -0.000000   0.000000   0.001715   1.359839  -0.000000  -0.000000   0.000000
    89    2   2pz     0.000937   1.389966  -0.001731   0.000000  -0.000000   1.364748  -0.001709  -0.000000   0.000000  -0.000000
    90    2   2px     0.000000  -0.000000   0.000000  -0.656929  -2.730475  -0.000000  -0.000000   4.050428   0.774510  -1.782600
    91    2   2py     0.602956  -0.001449  -1.144136   0.000000  -0.000000  -0.000868  -0.687536   0.000000   0.000000  -0.000000
    92    2   2pz    -0.000758  -1.153135   0.001438  -0.000000   0.000000  -0.690681   0.000864   0.000000  -0.000000   0.000000
    93    2   2px     0.000000   0.000000   0.000000  -8.502909   1.429484   0.000000   0.000000  14.195953  -2.224221   1.089803
    94    2   2py    -0.276524   0.005510   4.380898   0.000000  -0.000000  -0.007160  -5.697463  -0.000000   0.000000  -0.000000
    95    2   2pz     0.000347   4.385464  -0.005504   0.000000   0.000000  -5.699008   0.007158  -0.000000   0.000000   0.000000
    96    2   2px     0.000000   0.000000   0.000000  -4.264693   1.509919   0.000000   0.000000   6.196251  -0.129951   0.859236
    97    2   2py     0.328285   0.004261   3.380338  -0.000000  -0.000000  -0.003699  -2.944834  -0.000000   0.000000   0.000000
    98    2   2pz    -0.000412   3.391042  -0.004247   0.000000   0.000000  -2.943888   0.003700  -0.000000  -0.000000  -0.000000
    99    2   2px     0.000000   0.000000  -0.000000  -0.439970   0.156460   0.000000   0.000000   0.492206  -0.018038  -0.038500
   100    2   2py    -0.009119   0.000158   0.125189  -0.000000   0.000000  -0.000038  -0.030937   0.000000   0.000000   0.000000
   101    2   2pz     0.000011   0.125885  -0.000157   0.000000   0.000000  -0.030593   0.000039  -0.000000   0.000000  -0.000000
   102    2   3d0    -0.000000  -0.000000  -0.000000   0.458368  -0.544809  -0.000000   0.000000  -0.328575   0.007529  -0.138252
   103    2   3d2-   -0.828454   0.000950   0.756188   0.000000  -0.000000  -0.001278  -1.016460  -0.000000   0.000000  -0.000000
   104    2   3d1+    0.001041   0.755884  -0.000950   0.000000   0.000000  -1.016810   0.001277  -0.000000  -0.000000  -0.000000
   105    2   3d2+   -0.000000   0.000000  -0.000000  -0.819313   0.950022   0.000000  -0.000000   0.572952  -0.012728   0.239272
   106    2   3d1-    0.000000  -0.000000   0.000000  -0.000032   0.000008  -0.000000   0.000000   0.000005   0.000000  -0.000000
   107    2   3d0     0.000000   0.000000   0.000000  -0.894269   0.439892   0.000000  -0.000000   1.793962   0.030272   0.114224
   108    2   3d2-    0.604943  -0.001546  -1.233115  -0.000000   0.000000   0.003416   2.717980   0.000000  -0.000000   0.000000
   109    2   3d1+   -0.000760  -1.230740   0.001549  -0.000000  -0.000000   2.718835  -0.003415   0.000000  -0.000000   0.000000
   110    2   3d2+    0.000000  -0.000000  -0.000000   1.578377  -0.767010  -0.000000   0.000000  -3.111984  -0.052292  -0.198084
   111    2   3d1-   -0.000000   0.000000  -0.000000   0.000037  -0.000006   0.000000  -0.000000  -0.000006   0.000000  -0.000000
   112    2   3d0    -0.000000   0.000000   0.000000  -1.514775   0.895779   0.000000   0.000000   1.656793  -0.428241   0.745639
   113    2   3d2-   -0.420393  -0.004359  -3.460620   0.000000   0.000000   0.004050   3.223938   0.000000   0.000000  -0.000000
   114    2   3d1+    0.000528  -3.469232   0.004348  -0.000000  -0.000000   3.223506  -0.004051   0.000000  -0.000000   0.000000
   115    2   3d2+   -0.000000  -0.000000  -0.000000   2.702702  -1.549887  -0.000000  -0.000000  -2.864893   0.741432  -1.291188
   116    2   3d1-    0.000000  -0.000000   0.000000   0.000099   0.000002   0.000000   0.000000   0.000006  -0.000000   0.000000
   117    2   3d0     0.000000   0.000000   0.000000  -0.301262   0.345400   0.000000   0.000000   0.255478  -0.004217   0.122141
   118    2   3d2-   -0.200124  -0.001408  -1.115944   0.000000   0.000000   0.000901   0.718040   0.000000   0.000000  -0.000000
   119    2   3d1+    0.000251  -1.120338   0.001402  -0.000000  -0.000000   0.717158  -0.000902   0.000000  -0.000000   0.000000
   120    2   3d2+   -0.000000  -0.000000   0.000000   0.532948  -0.598615  -0.000000   0.000000  -0.442465   0.007319  -0.211664
   121    2   3d1-    0.000000  -0.000000  -0.000000   0.000014  -0.000000  -0.000000   0.000000   0.000000   0.000000  -0.000000
   122    2   4f1+    0.000000   0.000000   0.000000  -0.287218   0.026145  -0.000000  -0.000000  -0.609263  -0.051297   0.046709
   123    2   4f1-   -0.085611   0.000200   0.163555   0.000000   0.000000   0.000201   0.161034  -0.000000  -0.000000   0.000000
   124    2   4f0     0.000263   0.404335  -0.000503   0.000000  -0.000000   0.394978  -0.000496  -0.000000   0.000000  -0.000000
   125    2   4f3+    0.000000  -0.000000  -0.000000   0.403845  -0.032066  -0.000000   0.000000   0.788336   0.066328  -0.060297
   126    2   4f2-    0.000000  -0.000000   0.000000   0.000051   0.000003   0.000000  -0.000000   0.000003   0.000000   0.000000
   127    2   4f3-    0.337529  -0.000809  -0.642959  -0.000000  -0.000000  -0.000786  -0.626197   0.000000   0.000000  -0.000000
   128    2   4f2+   -0.000349  -0.525942   0.000664  -0.000000   0.000000  -0.510943   0.000644   0.000000  -0.000000  -0.000000
   129    2   4f1+   -0.000000  -0.000000  -0.000000   0.774065  -0.633828  -0.000000  -0.000000  -0.561932  -0.080519  -0.486118
   130    2   4f1-    0.072285  -0.000460  -0.369763  -0.000000   0.000000   0.000582   0.462597   0.000000   0.000000  -0.000000
   131    2   4f0    -0.000222  -0.909242   0.001138  -0.000000  -0.000000   1.133152  -0.001424   0.000000  -0.000000   0.000000
   132    2   4f3+    0.000000   0.000000   0.000000  -1.056943   0.817150   0.000000   0.000000   0.725043   0.103860   0.627569
   133    2   4f2-   -0.000000   0.000000  -0.000000  -0.000089  -0.000002   0.000000   0.000000  -0.000001  -0.000000  -0.000000
   134    2   4f3-   -0.283485   0.001811   1.440229   0.000000  -0.000000  -0.002250  -1.790412  -0.000000  -0.000000   0.000000
   135    2   4f2+    0.000293   1.177208  -0.001482   0.000000   0.000000  -1.462393   0.001836  -0.000000   0.000000  -0.000000
   136    2   4f1+    0.000000   0.000000  -0.000000   0.370426  -0.213728  -0.000000   0.000000  -0.128754   0.118452  -0.142020
   137    2   4f1-   -0.122503  -0.000236  -0.188169   0.000000   0.000000   0.000161   0.128766   0.000000   0.000000  -0.000000
   138    2   4f0     0.000377  -0.463417   0.000579  -0.000000  -0.000000   0.315423  -0.000396   0.000000  -0.000000   0.000000
   139    2   4f3+    0.000000  -0.000000  -0.000000  -0.503965   0.276328   0.000000   0.000000   0.164703  -0.152793   0.183396
   140    2   4f2-   -0.000000   0.000000  -0.000000  -0.000040   0.000001  -0.000000  -0.000000  -0.000002   0.000000   0.000000
   141    2   4f3-    0.475411   0.000922   0.731357  -0.000000  -0.000000  -0.000627  -0.499535  -0.000000  -0.000000   0.000000
   142    2   4f2+   -0.000488   0.599346  -0.000752   0.000000   0.000000  -0.407550   0.000513  -0.000000   0.000000  -0.000000
   143    2   5g0    -0.000000   0.000000  -0.000000  -0.118673  -0.191911  -0.000000  -0.000000  -0.196149  -0.051416  -0.068775
   144    2   5g2-   -0.163506  -0.000144  -0.123132   0.000000  -0.000000  -0.000383  -0.304530   0.000000   0.000000  -0.000000
   145    2   5g1+    0.000436  -0.266362   0.000328   0.000000   0.000000  -0.646149   0.000812   0.000000  -0.000000  -0.000000
   146    2   5g4+    0.000000  -0.000000  -0.000000  -0.257331  -0.379025  -0.000000  -0.000000  -0.387824  -0.101521  -0.135608
   147    2   5g1-    0.000000   0.000000   0.000000   0.000012   0.000000  -0.000000   0.000000   0.000001   0.000000  -0.000000
   148    2   5g2+    0.000000   0.000000   0.000000   0.181223   0.286189   0.000000   0.000000   0.292594   0.076670   0.102521
   149    2   5g4-    0.435399   0.000428   0.338100  -0.000000   0.000000   0.001012   0.805607  -0.000000  -0.000000   0.000000
   150    2   5g3+   -0.000389   0.240831  -0.000311  -0.000000  -0.000000   0.569796  -0.000716  -0.000000   0.000000   0.000000
   151    2   5g3-   -0.000000  -0.000000  -0.000000  -0.000031  -0.000001   0.000000  -0.000000  -0.000001  -0.000000   0.000000
   152    2   5g0     0.000000   0.000000  -0.000000   0.211697  -0.031841  -0.000000   0.000000   0.061350  -0.037570  -0.083691
   153    2   5g2-    0.077330   0.000259   0.212699  -0.000000  -0.000000  -0.000097  -0.077364  -0.000000  -0.000000   0.000000
   154    2   5g1+   -0.000206   0.455401  -0.000567   0.000000   0.000000  -0.164247   0.000206  -0.000000   0.000000  -0.000000
   155    2   5g4+   -0.000000  -0.000000   0.000000   0.457300  -0.062055  -0.000000   0.000000   0.121268  -0.073995  -0.165053
   156    2   5g1-   -0.000000   0.000000  -0.000000  -0.000020  -0.000000   0.000000   0.000000  -0.000000  -0.000000   0.000000
   157    2   5g2+   -0.000000  -0.000000  -0.000000  -0.323064   0.047328   0.000000  -0.000000  -0.091508   0.055988   0.124761
   158    2   5g4-   -0.206098  -0.000722  -0.572025   0.000000   0.000000   0.000258   0.204988   0.000000   0.000000  -0.000000
   159    2   5g3+    0.000184  -0.406083   0.000516  -0.000000  -0.000000   0.144999  -0.000182   0.000000  -0.000000   0.000000
   160    2   5g3-    0.000000  -0.000000   0.000000   0.000053   0.000001  -0.000000  -0.000000   0.000000   0.000000  -0.000000


 HOMO      8.1    -0.368225 =     -10.0199eV
 LUMO      9.1     0.087079 =       2.3695eV
 LUMO-HOMO         0.455304 =      12.3894eV


 **********************************************************************************************************************************
 DATASETS  * FILE   NREC   LENGTH (MB)   RECORD NAMES
              1      19      127.76       500      610      700      900      950      970     1000      129      960     1100   
                                          VAR    BASINP    GEOM    SYMINP    ZMAT    AOBASIS   BASIS     P2S    ABASIS      S 
                                         1400     1410     1200     1210     1080     1600     1650     1300     1700   
                                           T        V       H0       H01     AOSYM     SMH    MOLCAS    ERIS     OPER   

              2       4        3.30       700     1000      520     2100   
                                         GEOM     BASIS   MCVARS     RHF  

 PROGRAMS   *        TOTAL    HF-SCF       INT
 CPU TIMES  *         9.03      4.75      4.21
 REAL TIME  *         9.47 SEC
 DISK USED  *       420.06 MB
 **********************************************************************************************************************************

 Dump information in style XML to tmp.xml                                                                         

 Molecular orbitals read from record     2100.2  Type=RHF/CANONICAL (state 1.1)
 Occupation numbers read from record     2100.2  Type=RHF/RHF (state 1.1)
 Orbital energies read from record       2100.2  Type=RHF/CANONICAL (state 1.1)
 Redundancy group numbers read from rec  2100.2  Type=RHF/RHF (state 1.1)

 **********************************************************************************************************************************

 Dump information in style MOLDEN to tmp.molden                                                                      

 Molecular orbitals read from record     2100.2  Type=RHF/CANONICAL (state 1.1)
 Occupation numbers read from record     2100.2  Type=RHF/RHF (state 1.1)
 Orbital energies read from record       2100.2  Type=RHF/CANONICAL (state 1.1)
 Redundancy group numbers read from rec  2100.2  Type=RHF/RHF (state 1.1)

 DUMP ORBITAL  1.1 AS ORBITAL    1  occ=    2.0000  eig=  -20.7052  GROUP=   2
 DUMP ORBITAL  2.1 AS ORBITAL    2  occ=    2.0000  eig=  -20.7024  GROUP=   2
 DUMP ORBITAL  3.1 AS ORBITAL    3  occ=    2.0000  eig=   -1.8907  GROUP=   2
 DUMP ORBITAL  4.1 AS ORBITAL    4  occ=    2.0000  eig=   -1.0331  GROUP=   2
 DUMP ORBITAL  5.1 AS ORBITAL    5  occ=    2.0000  eig=   -0.8746  GROUP=   2
 DUMP ORBITAL  6.1 AS ORBITAL    6  occ=    2.0000  eig=   -0.8043  GROUP=   2
 DUMP ORBITAL  7.1 AS ORBITAL    7  occ=    2.0000  eig=   -0.7837  GROUP=   2
 DUMP ORBITAL  8.1 AS ORBITAL    8  occ=    2.0000  eig=   -0.3682  GROUP=   2

 Total charge:      16.000000

 **********************************************************************************************************************************

 HF/aug-cc-pVQZ energy=   -149.535653414491

          HF-SCF
   -149.53565341
 **********************************************************************************************************************************
 Molpro calculation terminated
