
 define (neptun) : TURBOMOLE V7.0.1( 19978 ) 29 Sep 2015 at 10:17:19
 Copyright (C) 2015 TURBOMOLE GmbH, Karlsruhe


    2019-06-10 17:11:54.771 

             OPERATING SYSTEM = unix
                    HOST NAME = neptun
   STANDARD BASIS SET LIBRARY = /usr/local/chem/Turbomole7.0.1/basen/
  ALTERNATE BASIS SET LIBRARY = /usr/local/chem/Turbomole7.0.1/basold/
 LIBRARY FOR RI-J  BASIS SETS = /usr/local/chem/Turbomole7.0.1/jbasen/
 LIBRARY FOR RI-JK BASIS SETS = /usr/local/chem/Turbomole7.0.1/jkbasen/
 LIBRARY FOR RIMP2/RICC2 SETS = /usr/local/chem/Turbomole7.0.1/cbasen/
 LIBRARY FOR RIR12 BASIS SETS = /usr/local/chem/Turbomole7.0.1/cabasen/
 LIBRARY FOR OEP   BASIS SETS = /usr/local/chem/Turbomole7.0.1/xbasen/
            STRUCTURE LIBRARY = /usr/local/chem/Turbomole7.0.1/structures/

 
 ***********************************************************
 *                                                         *
 *                       D E F I N E                       *
 *                                                         *
 *         TURBOMOLE'S  INTERACTIVE  INPUT  PROGRAM        *
 *                                                         *
 *  Quantum Chemistry Group       University of Karlsruhe  *
 *                                                         *
 ***********************************************************
 

 DATA WILL BE WRITTEN TO THE NEW FILE control

 IF YOU WANT TO READ DEFAULT-DATA FROM ANOTHER control-TYPE FILE,
 THEN ENTER ITS LOCATION/NAME OR OTHERWISE HIT >return<.

 
 INPUT TITLE OR 
 ENTER & TO REPEAT DEFINITION OF DEFAULT INPUT FILE 

 SPECIFICATION OF MOLECULAR GEOMETRY ( #ATOMS=0     SYMMETRY=c1  )
 YOU MAY USE ONE OF THE FOLLOWING COMMANDS : 
 sy <group> <eps> : DEFINE MOLECULAR SYMMETRY (default for eps=3d-1)
 desy <eps>       : DETERMINE MOLECULAR SYMMETRY AND ADJUST 
                     COORDINATES (default for eps=1d-6)
 susy             : ADJUST COORDINATES FOR SUBGROUPS
 ai               : ADD ATOMIC COORDINATES INTERACTIVELY
 a <file>         : ADD ATOMIC COORDINATES FROM FILE <file>
 aa <file>        : ADD ATOMIC COORDINATES IN ANGSTROEM UNITS FROM FILE <file>
 sub              : SUBSTITUTE AN ATOM BY A GROUP OF ATOMS
 i                : INTERNAL COORDINATE MENU 
 ired             : REDUNDANT INTERNAL COORDINATES
 red_info         : DISPLAY REDUNDANT INTERNAL COORDINATES
 ff               : UFF-FORCEFIELD CALCULATION
 m                : MANIPULATE GEOMETRY
 frag             : Define Fragments for BSSE calculation
 w <file>         : WRITE MOLECULAR COORDINATES TO FILE <file> 
 r <file>         : RELOAD ATOMIC AND INTERNAL COORDINATES FROM FILE <file>
 name             : CHANGE ATOMIC IDENTIFIERS 
 del              : DELETE ATOMS 
 dis              : DISPLAY MOLECULAR GEOMETRY 
 banal            : CARRY OUT BOND ANALYSIS 
 *                : TERMINATE MOLECULAR GEOMETRY SPECIFICATION 
                     AND WRITE GEOMETRY DATA TO CONTROL FILE 

 IF YOU APPEND A QUESTION MARK TO ANY COMMAND AN EXPLANATION
 OF THAT COMMAND MAY BE GIVEN 


 CARTESIAN COORDINATES FOR   3 ATOMS HAVE SUCCESSFULLY 
 BEEN ADDED. 

 keyword $intdef  missing in file <../../coord>

 DEFINITIONS OF INTERNAL COORDINATES HAVE  N O T  BEEN READ. 
 SPECIFICATION OF BOND TOPOLOGY HAS BEEN READ. 

 SPECIFICATION OF MOLECULAR GEOMETRY ( #ATOMS=3     SYMMETRY=c1  )
 YOU MAY USE ONE OF THE FOLLOWING COMMANDS : 
 sy <group> <eps> : DEFINE MOLECULAR SYMMETRY (default for eps=3d-1)
 desy <eps>       : DETERMINE MOLECULAR SYMMETRY AND ADJUST 
                     COORDINATES (default for eps=1d-6)
 susy             : ADJUST COORDINATES FOR SUBGROUPS
 ai               : ADD ATOMIC COORDINATES INTERACTIVELY
 a <file>         : ADD ATOMIC COORDINATES FROM FILE <file>
 aa <file>        : ADD ATOMIC COORDINATES IN ANGSTROEM UNITS FROM FILE <file>
 sub              : SUBSTITUTE AN ATOM BY A GROUP OF ATOMS
 i                : INTERNAL COORDINATE MENU 
 ired             : REDUNDANT INTERNAL COORDINATES
 red_info         : DISPLAY REDUNDANT INTERNAL COORDINATES
 ff               : UFF-FORCEFIELD CALCULATION
 m                : MANIPULATE GEOMETRY
 frag             : Define Fragments for BSSE calculation
 w <file>         : WRITE MOLECULAR COORDINATES TO FILE <file> 
 r <file>         : RELOAD ATOMIC AND INTERNAL COORDINATES FROM FILE <file>
 name             : CHANGE ATOMIC IDENTIFIERS 
 del              : DELETE ATOMS 
 dis              : DISPLAY MOLECULAR GEOMETRY 
 banal            : CARRY OUT BOND ANALYSIS 
 *                : TERMINATE MOLECULAR GEOMETRY SPECIFICATION 
                     AND WRITE GEOMETRY DATA TO CONTROL FILE 

 IF YOU APPEND A QUESTION MARK TO ANY COMMAND AN EXPLANATION
 OF THAT COMMAND MAY BE GIVEN 


 YOU DID NOT YET DEFINE ANY INTERNAL COORDINATES !

 ONLY AN INCOMPLETE SET OF   -1 INTERNALS SPECIFIED
 RECOMMENDATION: USE CARTESIAN COORDINATES (ENTER no BELOW)
 FOR ANY OTHER ANSWER YOU RETURN TO THE PREVIOUS MENU AGAIN

 IF YOU DO NOT WANT TO USE INTERNAL COORDINATES ENTER  no


 GEOMETRY DATA WILL BE WRITTEN TO FILE coord


 SUPPLYING BASIS SETS TO    3 ATOMS 
 #                                                                       
 #                       BASIS SET LIBRARY FOR OXYGEN                    
 #            ECPs, HONDO-BASIS SETS FROM basen AND                      
 #     FULLY OPTIMIZED BASIS SETS FROM newbas MERGED 02/6/93             
 #                                                                       
 #         abbreviation hondo refers to the version 7.0 of HONDO         
 #                                                                       
 #                                                                       
 ########################################################################
 #       HF limit : E(3P) = -74.809398 a.u. (C. Froese Fischer, 1977)    
 ########################################################################
 #       Roothaan parameters for O(3P) in symmetry I:                    
 #        a = 15/16      b = 9/8                                         
 ########################################################################
 #                                                                       
 o def-SV(P)                                                             
 o def2-SVP                                                              
 o dhf-SVP                                                               
 o dhf-SVP-2c                                                            
 o def2-SV(P)                                                            
 o dhf-SV(P)                                                             
 o dhf-SV(P)-2c                                                          
 # o (7s4p1d)/[3s2p1d] {511/31/1}                                        
 # ROHF(equiv) energy is -74.71374601625 a.u.  (virial theorem = 2.000000
 # UHF(noneq)  energy is -74.72010092377 a.u.  (virial theorem = 2.000106
 #                                                                       
 #                    BASIS SET LIBRARY FOR HYDROGEN                     
 #            ECPs, HONDO-BASIS SETS FROM basen AND                      
 #     FULLY OPTIMIZED BASIS SETS FROM newbas MERGED 02/6/93             
 #                                                                       
 #         abbreviation hondo refers to the version 7.0 of HONDO         
 #                                                                       
 ########################################################################
 #       HF limit : E(2S) = -0.5 a.u.                                    
 ########################################################################
 #       Roothaan parameters for H(2S):                                  
 #        a = 0      b = 0                                               
 ########################################################################
 #                                                                       
 h def-SV(P)                                                             
 h def2-SV(P)                                                            
 h dhf-SV(P)                                                             
 h dhf-SV(P)-2c                                                          
 # HF(equiv) energy is -0.49927840571 a.u.  (virial theorem = 2.000000001
 # (4s)/[2s] {31}                                                        
 # H. Horn, Aug. 91                                                      
 
 ==============================================================================
 NOTE: Improved basis sets are available for H-Rn ("def2-bases").
 For further information type "bi".
 ==============================================================================

 ATOMIC ATTRIBUTE DEFINITION MENU  ( #atoms=3     #bas=3     #ecp=0     )

 b    : ASSIGN ATOMIC BASIS SETS 
 bb   : b RESTRICTED TO BASIS SET LIBRARY 
 bl   : LIST ATOMIC BASIS SETS ASSIGNED
 bm   : MODIFY DEFINITION OF ATOMIC BASIS SET
 bp   : SWITCH BETWEEN 5d/7f AND 6d/10f
 lib  : SELECT BASIS SET LIBRARY
 ecp  : ASSIGN EFFECTIVE CORE POTENTIALS 
 ecpb : ecp RESTRICTED TO BASIS SET LIBRARY 
 ecpi : GENERAL INFORMATION ABOUT EFFECTIVE CORE POTENTIALS
 ecpl : LIST EFFECTIVE CORE POTENTIALS ASSIGNED
 ecprm: REMOVE EFFECTIVE CORE POTENTIAL(S)
 c    : ASSIGN NUCLEAR CHARGES (IF DIFFERENT FROM DEFAULTS) 
 cem  : ASSIGN NUCLEAR CHARGES FOR EMBEDDING 
 m    : ASSIGN ATOMIC MASSES (IF DIFFERENT FROM DEFAULTS) 
 dis  : DISPLAY MOLECULAR GEOMETRY 
 dat  : DISPLAY ATOMIC ATTRIBUTES YET ESTABLISHED 
 h    : EXPLANATION OF ATTRIBUTE DEFINITION SYNTAX 
 *    : TERMINATE THIS SECTION AND WRITE DATA OR DATA REFERENCES TO control
 GOBACK=& (TO GEOMETRY MENU !)


 BASIS SETS WILL BE WRITTEN TO FILE basis BY DEFAULT


              ATOMIC COORDINATES              ATOM SHELLS CHARGE PSEUDO MASS
     0.00000000    0.00000000   -0.12178984    o      6      8.     0 15.999
     1.41713421    0.00000000    0.96657855    h      2      1.     0  1.008
    -1.41713421    0.00000000    0.96657855    h      2      1.     0  1.008
 

 we will work with the  1s 3p 5d  7f  9g basis set


 there are 1 real representations :   a   

 OCCUPATION NUMBER & MOLECULAR ORBITAL DEFINITION MENU 

 CHOOSE COMMAND 
 infsao     : OUTPUT SAO INFORMATION 
 atb        : Switch for writing MOs in ASCII or binary format
 eht        : PROVIDE MOS && OCCUPATION NUMBERS FROM EXTENDED HUECKEL GUESS 
 use <file> : SUPPLY MO INFORMATION USING DATA FROM <file> 
 man        : MANUAL SPECIFICATION OF OCCUPATION NUMBERS 
 hcore      : HAMILTON CORE GUESS FOR MOS
 flip       : FLIP SPIN OF A SELECTED ATOM
 &          : MOVE BACK TO THE ATOMIC ATTRIBUTES MENU
 THE COMMANDS  use  OR  eht  OR  *  OR q(uit) TERMINATE THIS MENU !!! 
 FOR EXPLANATIONS APPEND A QUESTION MARK (?) TO ANY COMMAND 


 PROVIDING EHT AOS FOR THE FOLLOWING SET OF ATOMS :
     1 o       
 for the   8 electrons of the actual atom you have
 to provide at least basis functions for the AO's :   2s  1p  0d  0f


 reading orbital data 3P(DZ)  from file /usr/local/chem/Turbomole7.0.1/basen/o . 

 

 PROVIDING EHT AOS FOR THE FOLLOWING SET OF ATOMS :
     2 h            3 h       
 for the   1 electrons of the actual atom you have
 to provide at least basis functions for the AO's :   1s  0p  0d  0f


 reading orbital data 2S(DZ)  from file /usr/local/chem/Turbomole7.0.1/basen/h . 

 

    sao summary :
   irrep      number of sao's referring to
                old basis    new basis
    a               7           18

 EFFECTIVE NUMBER OF NON-VANISHING CARTESIAN 
 OVERLAP MATRIX ELEMENTS   :     351


 DO YOU WANT THE DEFAULT PARAMETERS FOR THE EXTENDED HUECKEL CALCULATION ? 
 DEFAULT=y   HELP=? 


 ENTER THE MOLECULAR CHARGE  (DEFAULT=0) 


 NUMBER OF ELECTRONS IN YOUR MOLECULE IS   10


 AUTOMATIC OCCUPATION NUMBER ASSIGNMENT ESTABLISHED !
 FOUND CLOSED SHELL SYSTEM !
 HOMO/LUMO-SEPARATION :  0.923683
 ORBITAL  SYMMETRY      ENERGY     DEFAULT 
 (SHELL)    TYPE                 OCCUPATION 
     2     2a          -1.25957      2
     3     3a          -0.68474      2
     4     4a          -0.63782      2
     5     5a          -0.62277      2
     6     6a           0.30091      0
     7     7a           0.63121      0

 DO YOU ACCEPT THIS OCCUPATION ?  DEFAULT=y 


 projection quality sqrt{sum[1-<i|i>]}/korb irrep a    :  0.58D-02

 PROVIDING  'derivative'  DEFAULT PARAMETERS ...

 PROVIDING FORCE RELAXATION DEFAULT PARAMETERS ...

 FILE SPACE LOCKING WILL BE DISABLED BY DEFAULT !


 GENERAL MENU : SELECT YOUR TOPIC 
 scf    : SELECT NON-DEFAULT SCF PARAMETER 
 mp2    : OPTIONS AND DATA GROUPS FOR rimp2 and mpgrad
 cc     : OPTIONS AND DATA GROUPS FOR ricc2
 pnocc  : OPTIONS AND DATA GROUPS FOR pnoccsd
 ex     : EXCITED STATE AND RESPONSE OPTIONS
 prop   : SELECT TOOLS FOR SCF-ORBITAL ANALYSIS 
 drv    : SELECT NON-DEFAULT INPUT PARAMETER FOR EVALUATION
          OF ANALYTICAL ENERGY DERIVATIVES 
          (GRADIENTS, FORCE CONSTANTS) 
 rex    : SELECT OPTIONS FOR GEOMETRY UPDATES USING RELAX
 stp    : SELECT NON-DEFAULT STRUCTURE OPTIMIZATION PARAMETER
 e      : DEFINE EXTERNAL ELECTROSTATIC FIELD 
 dft    : DFT Parameters 
 ri     : RI Parameters 
 rijk   : RI-JK-HF Parameters 
 rirpa  : RIRPA Parameters 
 senex  : seminumeric exchange parameters 
 hybno  : hybrid Noga/Diag parameters
 dsp    : DFT dispersion correction
 trunc  : USE TRUNCATED AUXBASIS DURING ITERATIONS 
 marij  : MULTIPOLE ACCELERATED RI-J 
 dis    : DISPLAY MOLECULAR GEOMETRY 
 list   : LIST OF CONTROL FILE 
 &      : GO BACK TO OCCUPATION/ORBITAL ASSIGNMENT MENU

 * or q : END OF DEFINE SESSION 



STATUS OF DFT_OPTIONS:
 DFT is NOT used
   functional b-p
     gridsize m3

 ENTER DFT-OPTION TO BE MODIFIED 

 func    : TO CHANGE TYPE OF FUNCTIONAL 
 grid    : TO CHANGE GRIDSIZE 
  on:   TO SWITCH ON  DFT 
 Just <ENTER>, q or '*' terminate this menu.


STATUS OF DFT_OPTIONS:
 DFT is used
   functional b-p
     gridsize m3

 ENTER DFT-OPTION TO BE MODIFIED 

 func    : TO CHANGE TYPE OF FUNCTIONAL 
 grid    : TO CHANGE GRIDSIZE 
  off:  TO SWITCH OFF DFT 
 Just <ENTER>, q or '*' terminate this menu.


STATUS OF DFT_OPTIONS:
 DFT is used
   functional b3-lyp
     gridsize m3

 ENTER DFT-OPTION TO BE MODIFIED 

 func    : TO CHANGE TYPE OF FUNCTIONAL 
 grid    : TO CHANGE GRIDSIZE 
  off:  TO SWITCH OFF DFT 
 Just <ENTER>, q or '*' terminate this menu.

 GENERAL MENU : SELECT YOUR TOPIC 
 scf    : SELECT NON-DEFAULT SCF PARAMETER 
 mp2    : OPTIONS AND DATA GROUPS FOR rimp2 and mpgrad
 cc     : OPTIONS AND DATA GROUPS FOR ricc2
 pnocc  : OPTIONS AND DATA GROUPS FOR pnoccsd
 ex     : EXCITED STATE AND RESPONSE OPTIONS
 prop   : SELECT TOOLS FOR SCF-ORBITAL ANALYSIS 
 drv    : SELECT NON-DEFAULT INPUT PARAMETER FOR EVALUATION
          OF ANALYTICAL ENERGY DERIVATIVES 
          (GRADIENTS, FORCE CONSTANTS) 
 rex    : SELECT OPTIONS FOR GEOMETRY UPDATES USING RELAX
 stp    : SELECT NON-DEFAULT STRUCTURE OPTIMIZATION PARAMETER
 e      : DEFINE EXTERNAL ELECTROSTATIC FIELD 
 dft    : DFT Parameters 
 ri     : RI Parameters 
 rijk   : RI-JK-HF Parameters 
 rirpa  : RIRPA Parameters 
 senex  : seminumeric exchange parameters 
 hybno  : hybrid Noga/Diag parameters
 dsp    : DFT dispersion correction
 trunc  : USE TRUNCATED AUXBASIS DURING ITERATIONS 
 marij  : MULTIPOLE ACCELERATED RI-J 
 dis    : DISPLAY MOLECULAR GEOMETRY 
 list   : LIST OF CONTROL FILE 
 &      : GO BACK TO OCCUPATION/ORBITAL ASSIGNMENT MENU

 * or q : END OF DEFINE SESSION 



 MAIN MENU FOR RESPONSE CALCULATIONS

 OPTION | STATUS | DESCRIPTION
 -------------------------------------------------------------------
 rpas   | off    | RPA SINGLET EXCITATIONS (TDHF OR TDDFT)
 ciss   | off    | TDA SINGLET EXCITATIONS (CI SINGLES)
 rpat   | off    | RPA TRIPLET EXCITATIONS (TDHF OR TDDFT)
 cist   | off    | TDA TRIPLET EXCITATIONS (CI SINGLES)
 polly  | off    | STATIC POLARIZABILITY
 dynpol | off    | DYNAMIC POLARIZABILITY
 single | off    | SINGLET STABILITY ANALYSIS
 triple | off    | TRIPLET STABILITY ANALYSIS
 nonrel | off    | NON-REAL STABILITY ANALYSIS

 ENTER <OPTION> TO SWITCH ON/OFF OPTION, * OR q TO QUIT



 MAIN MENU FOR RESPONSE CALCULATIONS

 OPTION | STATUS | DESCRIPTION
 -------------------------------------------------------------------
 rpas   | on     | RPA SINGLET EXCITATIONS (TDHF OR TDDFT)
 ciss   | off    | TDA SINGLET EXCITATIONS (CI SINGLES)
 rpat   | off    | RPA TRIPLET EXCITATIONS (TDHF OR TDDFT)
 cist   | off    | TDA TRIPLET EXCITATIONS (CI SINGLES)
 polly  | off    | STATIC POLARIZABILITY
 dynpol | off    | DYNAMIC POLARIZABILITY
 single | off    | SINGLET STABILITY ANALYSIS
 triple | off    | TRIPLET STABILITY ANALYSIS
 nonrel | off    | NON-REAL STABILITY ANALYSIS

 ENTER <OPTION> TO SWITCH ON/OFF OPTION, * OR q TO QUIT



              +--------------------------------------------------+
              | Atomic coordinate, charge and isotop information |
              +--------------------------------------------------+

                    atomic coordinates            atom    charge  isotop
          0.00000000    0.00000000   -0.12178984    o      8.000     0
          1.41713421    0.00000000    0.96657855    h      1.000     0
         -1.41713421    0.00000000    0.96657855    h      1.000     0
 
       center of nuclear mass  :    0.00000000    0.00000000   -0.00000000
       center of nuclear charge:    0.00000000    0.00000000    0.09588384

              +--------------------------------------------------+
              |               basis set information              |
              +--------------------------------------------------+

              we will work with the 1s 3p 5d 7f 9g ... basis set
              ...i.e. with spherical basis functions...

   type   atoms  prim   cont   basis
   ---------------------------------------------------------------------------
    o        1     24     14   def-SV(P)   [3s2p1d|7s4p1d]
    h        2      4      2   def-SV(P)   [2s|4s]
   ---------------------------------------------------------------------------
   total:    3     32     18
   ---------------------------------------------------------------------------

   total number of primitive shells          :   16
   total number of contracted shells         :   10
   total number of cartesian basis functions :   19
   total number of SCF-basis functions       :   18


 symmetry group of the molecule :   c1 

 the group has the following generators :
   c1(z)

    1 symmetry operations found

 there are 1 real representations :   a   

 maximum number of shells which are related by symmetry :  1


 determining totally symmetric integral contributions 
    - equivalent to irreducible tensor elements - 
 which can be formed within each triple of representations :

             representation triple      contributions

              a     a     a               1

    mo occupation :
   irrep   mo's   occupied
    a       18        5
 
 number of basis functions   :           18
 number of occupied orbitals :            5
 
 all orbitals will be included in the transformation

 number of non-frozen orbitals          :    18
 number of non-frozen occupied orbitals :     5


 STATE SELECTION MENU

 IRREP |  #STATES  | #SELECTED |
 ----------------------------------------------------------------
  a    |       65  |        0  | x y z Lx Ly Lz 1.85xx+1.85yy+zz
       |           |           | xz yz xy xx-yy xx+yy-2.51zz

 SELECT IRREP AND NUMBER OF STATES
 ENTER ? FOR HELP, * OR Q TO QUIT, & TO GO BACK



 STATE SELECTION MENU

 IRREP |  #STATES  | #SELECTED |
 ----------------------------------------------------------------
  a    |       65  |        5  | x y z Lx Ly Lz 1.85xx+1.85yy+zz
       |           |           | xz yz xy xx-yy xx+yy-2.51zz

 SELECT IRREP AND NUMBER OF STATES
 ENTER ? FOR HELP, * OR Q TO QUIT, & TO GO BACK



 GENERAL OPTIONS FOR RESPONSE CALCULATIONS

 OPTION  | VALUE  | DESCRIPTION
 -----------------------------------------------------
 rpacor  |    200 | MEMORY (MB) (DEFAULT:   200)
 rpaconv |      5 | CONVERGENCE THRESHOLD (DEFAULT: 5)

 ENTER <OPTION> <VALUE> TO CHANGE OPTION, * OR q TO QUIT


 SET SCF DENSITY CONVERGENCE THRESHOLD $denconv TO 1d-7
 (RECOMMENDED FOR RESPONSE CALCULATIONS) (y/n, DEFAULT:y)?

 GENERAL MENU : SELECT YOUR TOPIC 
 scf    : SELECT NON-DEFAULT SCF PARAMETER 
 mp2    : OPTIONS AND DATA GROUPS FOR rimp2 and mpgrad
 cc     : OPTIONS AND DATA GROUPS FOR ricc2
 pnocc  : OPTIONS AND DATA GROUPS FOR pnoccsd
 ex     : EXCITED STATE AND RESPONSE OPTIONS
 prop   : SELECT TOOLS FOR SCF-ORBITAL ANALYSIS 
 drv    : SELECT NON-DEFAULT INPUT PARAMETER FOR EVALUATION
          OF ANALYTICAL ENERGY DERIVATIVES 
          (GRADIENTS, FORCE CONSTANTS) 
 rex    : SELECT OPTIONS FOR GEOMETRY UPDATES USING RELAX
 stp    : SELECT NON-DEFAULT STRUCTURE OPTIMIZATION PARAMETER
 e      : DEFINE EXTERNAL ELECTROSTATIC FIELD 
 dft    : DFT Parameters 
 ri     : RI Parameters 
 rijk   : RI-JK-HF Parameters 
 rirpa  : RIRPA Parameters 
 senex  : seminumeric exchange parameters 
 hybno  : hybrid Noga/Diag parameters
 dsp    : DFT dispersion correction
 trunc  : USE TRUNCATED AUXBASIS DURING ITERATIONS 
 marij  : MULTIPOLE ACCELERATED RI-J 
 dis    : DISPLAY MOLECULAR GEOMETRY 
 list   : LIST OF CONTROL FILE 
 &      : GO BACK TO OCCUPATION/ORBITAL ASSIGNMENT MENU

 * or q : END OF DEFINE SESSION 

 
 ***********************************************************
 *                                                         *
 *                       e n d   o f                       *
 *                       D E F I N E                       *
 *                                                         *
 *         TURBOMOLE'S  INTERACTIVE  INPUT  PROGRAM        *
 *                                                         *
 *  Quantum Chemistry Group       University of Karlsruhe  *
 *                                                         *
 ***********************************************************


    ------------------------------------------------------------------------
         total  cpu-time :   0.03 seconds
         total wall-time :   0.03 seconds
    ------------------------------------------------------------------------


   ****  define : all done  ****


    2019-06-10 17:11:54.803 

 operating system is UNIX !
 hostname is         neptun

 dscf (neptun) : TURBOMOLE V7.0.1( 19978 ) 29 Sep 2015 at 10:17:19
 Copyright (C) 2015 TURBOMOLE GmbH, Karlsruhe


    2019-06-10 17:11:54.807 



                             d s c f - program

                   idea & directorship : reinhart ahlrichs
                   program development : marco haeser
                                         michael baer
                           dft version : oliver treutler


                          quantum chemistry group
                          universitaet  karlsruhe
                                  germany




                          References             
                                                 
          TURBOMOLE:                             
              R. Ahlrichs, M. Baer, M. Haeser, H. Horn, and
              C. Koelmel
              Electronic structure calculations on workstation
              computers: the program system TURBOMOLE
              Chem. Phys. Lett. 162: 165 (1989)
          Density Functional:                              
              O. Treutler and R. Ahlrichs                      
              Efficient Molecular Numerical Integration Schemes
              J. Chem. Phys. 102: 346 (1995)                   
          Parallel Version:                                
              Performance of parallel TURBOMOLE for Density    
              Functional Calculations                          
              M. v. Arnim and R. Ahlrichs                      
              J. Comp. Chem. 19: 1746 (1998)                   
                                         




              +--------------------------------------------------+
              | Atomic coordinate, charge and isotop information |
              +--------------------------------------------------+

                    atomic coordinates            atom    charge  isotop
          0.00000000    0.00000000   -0.12178984    o      8.000     0
          1.41713421    0.00000000    0.96657855    h      1.000     0
         -1.41713421    0.00000000    0.96657855    h      1.000     0
 
       center of nuclear mass  :    0.00000000    0.00000000   -0.00000000
       center of nuclear charge:    0.00000000    0.00000000    0.09588384

              +--------------------------------------------------+
              |               basis set information              |
              +--------------------------------------------------+

              we will work with the 1s 3p 5d 7f 9g ... basis set
              ...i.e. with spherical basis functions...

   type   atoms  prim   cont   basis
   ---------------------------------------------------------------------------
    o        1     24     14   def-SV(P)   [3s2p1d|7s4p1d]
    h        2      4      2   def-SV(P)   [2s|4s]
   ---------------------------------------------------------------------------
   total:    3     32     18
   ---------------------------------------------------------------------------

   total number of primitive shells          :   16
   total number of contracted shells         :   10
   total number of cartesian basis functions :   19
   total number of SCF-basis functions       :   18


 integral neglect threshold       :  0.18E-08
 integral storage threshold THIZE :  0.10E-04
 integral storage threshold THIME :         5


 DENSITY CONVERGENCE CHECK SWITCHED ON !
 SCF CONVERGENCE IF RMS(delta[D]) <     0.1000000000E-06


 symmetry group of the molecule :   c1 

 the group has the following generators :
   c1(z)

    1 symmetry operations found

 there are 1 real representations :   a   

 maximum number of shells which are related by symmetry :  1


    mo occupation :
   irrep   mo's   occupied
    a       18        5
 
 number of basis functions   :           18
 number of occupied orbitals :            5
 
  
           ------------------
           density functional
           ------------------
 Becke-3-Parameter hybrid functional: B3-LYP
 exchange:    0.8*LDA + 0.72*B88 + 0.2*HF
 correlation: 0.19*LDA(VWN) + 0.81*LYP
 iterations will be done with small grid
  
 spherical integration : Lebedev's spherical grid
 spherical gridsize    :           3
    i.e. gridpoints    :         302
 value for diffuse not defined
 radial integration    : Chebyshev 2nd kind (scaling 3)
 radial gridsize       :           3
 integration cells     :           3
 partition function    : becke
 partition sharpness   :           3
  

          ------------------------
          nuclear repulsion energy  :   9.30715477358    
          ------------------------

 
          -----------------
          -S,T+V- integrals
          -----------------

 1e-integrals will be neglected if expon. factor < 0.175893E-09
 
   Difference densities algorithm switched on.
   The maximal number of linear combinations of
   difference densities is          20 .

 automatic virtual orbital shift switched on 
      shift if e(lumo)-e(homo) < 0.10000000    


 DIIS switched on: error vector is FDS-SDF
 Max. Iterations for DIIS is     :   4
 DIIS matrix (see manual) 
    Scaling factor of diagonals  :  1.200
    threshold for scaling factor :  0.000

 scf convergence criterion : increment of total energy < .1000000D-05
                  and increment of one-electron energy < .1000000D-02


 <geterg> : there is no data group $energy 

  MOs are in ASCII format !


 reading orbital data $scfmo  from file mos . 

 orbital characterization : expanded
 
 mo provided and orthogonalized by Cholesky decomposition

 DSCF restart information will be dumped onto file mos

          Overall gridpoints after grid construction =          3534
 
                                              current damping :  0.700
 ITERATION  ENERGY          1e-ENERGY        2e-ENERGY     RMS[dD(SAO)]   TOL
   1  -76.106530848988    -124.43866883     39.024983206    0.000D+00 0.175D-08
                            Exc =    -7.646640742574     N = 9.9990627195    
          max. resid. norm for Fia-block=  2.500D-01 for orbital      4a         
          max. resid. fock norm         =  1.291D+00 for orbital      8a         
          Delta Eig. =    31.4479967766 eV 
 
                                              current damping :  0.650
 ITERATION  ENERGY          1e-ENERGY        2e-ENERGY     RMS[dD(SAO)]   TOL
   2  -76.256356982472    -123.34650592     37.782994163    0.246D-01 0.114D-08
                            Exc =    -7.517855589029     N = 9.9992879688    
          Norm of current diis error: 0.46374    
          max. resid. norm for Fia-block=  1.276D-01 for orbital      1a         
          max. resid. fock norm         =  1.310D-01 for orbital      1a         
          Delta Eig. =    13.3725138256 eV 
 
                                              current damping :  0.600
 ITERATION  ENERGY          1e-ENERGY        2e-ENERGY     RMS[dD(SAO)]   TOL
   3  -76.289244031812    -123.43993778     37.843538973    0.156D-01 0.855D-09
                            Exc =    -7.540746148510     N = 9.9992956246    
          Norm of current diis error: 0.21502    
          max. resid. norm for Fia-block=  5.066D-02 for orbital      1a         
          max. resid. fock norm         =  5.690D-02 for orbital      9a         
          Delta Eig. =     5.1974828039 eV 
 
                                              current damping :  0.650
 ITERATION  ENERGY          1e-ENERGY        2e-ENERGY     RMS[dD(SAO)]   TOL
   4  -76.298675764992    -123.25177517     37.645944634    0.979D-02 0.724D-09
                            Exc =    -7.528310922648     N = 9.9993218737    
          Norm of current diis error: 0.78573E-01
          max. resid. norm for Fia-block=  2.055D-02 for orbital      3a         
          max. resid. fock norm         =  2.256D-02 for orbital      6a         
          Delta Eig. =     1.9028382197 eV 
 
                                              current damping :  0.700
 ITERATION  ENERGY          1e-ENERGY        2e-ENERGY     RMS[dD(SAO)]   TOL
   5  -76.300180087989    -123.28506033     37.677725471    0.424D-02 0.664D-09
                            Exc =    -7.536106555208     N = 9.9993222138    
          Norm of current diis error: 0.33420E-01
          max. resid. norm for Fia-block=  8.406D-03 for orbital      4a         
          max. resid. fock norm         =  9.217D-03 for orbital      6a         
 mo-orthogonalization: Cholesky decomposition
          Delta Eig. =     0.6983124696 eV 
 
                                              current damping :  0.750
 ITERATION  ENERGY          1e-ENERGY        2e-ENERGY     RMS[dD(SAO)]   TOL
   6  -76.300477612101    -123.25706768     37.649435291    0.203D-02 0.627D-09
                            Exc =    -7.534707828522     N = 9.9993274610    
          Norm of current diis error: 0.13296E-01
          max. resid. norm for Fia-block=  3.389D-03 for orbital      3a         
          max. resid. fock norm         =  4.117D-03 for orbital      6a         
          Delta Eig. =     0.2840551106 eV 
 
                                              current damping :  0.800
 ITERATION  ENERGY          1e-ENERGY        2e-ENERGY     RMS[dD(SAO)]   TOL
   7  -76.300528261501    -123.26173051     37.654047475    0.833D-03 0.603D-09
                            Exc =    -7.535931626570     N = 9.9993279656    
          Norm of current diis error: 0.59487E-02
          max. resid. norm for Fia-block=  1.657D-03 for orbital      4a         
          max. resid. fock norm         =  1.809D-03 for orbital      6a         
          Delta Eig. =     0.1158145004 eV 
 
                                              current damping :  0.850
 ITERATION  ENERGY          1e-ENERGY        2e-ENERGY     RMS[dD(SAO)]   TOL
   8  -76.300538873426    -123.25832029     37.650626644    0.395D-03 0.585D-09
                            Exc =    -7.535856550020     N = 9.9993288888    
          Norm of current diis error: 0.26264E-02
          max. resid. norm for Fia-block=  6.944D-04 for orbital      4a         
          max. resid. fock norm         =  8.408D-04 for orbital      6a         
          Delta Eig. =     0.0508798937 eV 
 
                                              current damping :  0.900
 ITERATION  ENERGY          1e-ENERGY        2e-ENERGY     RMS[dD(SAO)]   TOL
   9  -76.300540965404    -123.25899324     37.651297505    0.171D-03 0.568D-09
                            Exc =    -7.536062880834     N = 9.9993290648    
          Norm of current diis error: 0.12404E-02
          max. resid. norm for Fia-block=  3.681D-04 for orbital      4a         
          max. resid. fock norm         =  3.910D-04 for orbital      6a         
          Delta Eig. =     0.0223555549 eV 
 
                                              current damping :  0.950
 ITERATION  ENERGY          1e-ENERGY        2e-ENERGY     RMS[dD(SAO)]   TOL
  10  -76.300541442271    -123.25830379     37.650607574    0.834D-04 0.554D-09
                            Exc =    -7.536046408355     N = 9.9993292694    
          Norm of current diis error: 0.58470E-03
          max. resid. norm for Fia-block=  1.592D-04 for orbital      4a         
          max. resid. fock norm         =  1.910D-04 for orbital      6a         
 mo-orthogonalization: Cholesky decomposition
          Delta Eig. =     0.0104951462 eV 
 
                                              current damping :  1.000
 ITERATION  ENERGY          1e-ENERGY        2e-ENERGY     RMS[dD(SAO)]   TOL
  11  -76.300541547251    -123.25850814     37.650811815    0.373D-04 0.541D-09
                            Exc =    -7.536096508290     N = 9.9993293048    
          Norm of current diis error: 0.29082E-03
          max. resid. norm for Fia-block=  8.939D-05 for orbital      4a         
          max. resid. fock norm         =  9.334D-05 for orbital      6a         
          Delta Eig. =     0.0048867998 eV 
 
                                              current damping :  1.050
 ITERATION  ENERGY          1e-ENERGY        2e-ENERGY     RMS[dD(SAO)]   TOL
  12  -76.300541578299    -123.25835312     37.650656769    0.192D-04 0.530D-09
                            Exc =    -7.536092573708     N = 9.9993293528    
          Norm of current diis error: 0.14475E-03
          max. resid. norm for Fia-block=  4.092D-05 for orbital      4a         
          max. resid. fock norm         =  4.774D-05 for orbital      6a         
          Delta Eig. =     0.0024202393 eV 

 ENERGY & DENSITY CONVERGED !

  Big Grid 
  e2xc, e2xcold =  -7.53610316342311       -7.53610316342311     
          Overall gridpoints after grid construction =         13740
 
                                              current damping :  1.100
 ITERATION  ENERGY          1e-ENERGY        2e-ENERGY     RMS[dD(SAO)]   TOL
  13  -76.300741282321    -123.25839098     37.650494924    0.903D-05 0.518D-09
                            Exc =    -7.536302858132     N = 9.9999983568    
          max. resid. norm for Fia-block=  2.188D-05 for orbital      4a         
          max. resid. fock norm         =  2.299D-05 for orbital      6a         

 convergence criteria satisfied after 13 iterations


                  ------------------------------------------ 
                 |  total energy      =    -76.30074128232  |
                  ------------------------------------------ 
                 :  kinetic energy    =     76.01864546201  :
                 :  potential energy  =   -152.31938674433  :
                 :  virial theorem    =      1.99630284299  :
                 :  wavefunction norm =      1.00000000000  :
                  .......................................... 


 <geterg> : there is no data group $energy 


 <skperg> : $end is missing 


 orbitals $scfmo  will be written to file mos

    irrep                  1a          2a          3a          4a          5a   
 eigenvalues H        -19.10632    -0.99108    -0.52721    -0.36352    -0.29035
            eV        -519.9134    -26.9690    -14.3462     -9.8919     -7.9009
 occupation              2.0000      2.0000      2.0000      2.0000      2.0000 

    irrep                  6a          7a          8a          9a         10a   
 eigenvalues H          0.04816     0.12898     0.59082     0.68744     0.92195
            eV           1.3106      3.5096     16.0771     18.7062     25.0877
 
 
 
 
 ==============================================================================
                           electrostatic moments
 ==============================================================================

 reference point for electrostatic moments:    0.00000   0.00000   0.00000

 
              nuc           elec       ->  total
 ------------------------------------------------------------------------------
                          charge      
 ------------------------------------------------------------------------------
          10.000000     -10.000000      -0.000000
 
 ------------------------------------------------------------------------------
                       dipole moment  
 ------------------------------------------------------------------------------
   x       0.000000      -0.000000      -0.000000
   y       0.000000      -0.000000      -0.000000
   z       0.958838      -0.118130       0.840708
 
   | dipole moment | =     0.8407 a.u. =     2.1369 debye 
 
 ------------------------------------------------------------------------------
                     quadrupole moment
 ------------------------------------------------------------------------------
  xx       4.016539      -7.246072      -3.229534
  yy       0.000000      -5.257001      -5.257001
  zz       1.987210      -6.312100      -4.324890
  xy       0.000000      -0.000000      -0.000000
  xz       0.000000      -0.000000      -0.000000
  yz       0.000000      -0.000000      -0.000000
 
     1/3  trace=      -4.270475
     anisotropy=       1.757734
 
 ==============================================================================
 
 


    ------------------------------------------------------------------------
         total  cpu-time :   0.08 seconds
         total wall-time :   0.08 seconds
    ------------------------------------------------------------------------


   ****  dscf : all done  ****


    2019-06-10 17:11:54.886 

 operating system is UNIX !
 hostname is         neptun

 escf (neptun) : TURBOMOLE V7.0.1( 19978 ) 29 Sep 2015 at 10:17:19
 Copyright (C) 2015 TURBOMOLE GmbH, Karlsruhe


    2019-06-10 17:11:54.891 




                                e s c f

                       quantum chemistry group
                       university of karlsruhe
                               germany


          integral direct evaluation of 

                    * excitation energies and transition moments 
                    * dynamic response properties 
                    * stabilities



          references (see also programs dscf and ridft) 

          implementation and benchmarks (review) 
          F. Furche and D. Rappoport,  
          "Density functional methods for excited states: 
          equilibrium structure and electronic spectra",
          ch. III of "Computational Photochemistry", ed. by 
          M. Olivucci, vol. 16 of "Theoretical and Computational 
          Chemistry", Elsevier, Amsterdam, 2005.

          two-component TDDFT with spin-orbit coupling 
          M. Kuehn and F. Weigend, 
          J. Chem. Theory Comput. 9 (2013), 5341.

          GW quasi particle energies
          M. J. van Setten, F. Weigend, and F. Evers,
          J. Chem. Theory Comput. 9 (2013), 232.

          Current-density dependent meta-GGA Linear Response
          J. E. Bates and F. Furche, 
          J. Chem. Phys. 137 (2012), 164105.

          spin-flip method 
          M. Kuehn and F. Weigend, 
          Chem. Phys. Chem. 12 (2011), 3331.

          RI-J method 
          R. Bauernschmitt, M. Haeser, O. Treutler, and R. Ahlrichs,
          Chem. Phys. Lett. 264 (1997), 573.

          density functional implementation               
          R. Bauernschmitt and R. Ahlrichs,
          Chem. Phys. Lett. 256 (1996), 454.
          R. Bauernschmitt and R. Ahlrichs,
          J. Chem. Phys. 104 (1996), 9047.

          UHF extension (RPA and CIS)
          C. Ochsenfeld, J. Gauss, and R. Ahlrichs, 
          J. Chem. Phys. 103 (1995), 7401.

          integral direct algorithm                 
          H. Weiss, R. Ahlrichs, and M. Haeser, 
          J. Chem. Phys. 99 (1993), 1262.
                                     




              +--------------------------------------------------+
              | Atomic coordinate, charge and isotop information |
              +--------------------------------------------------+

                    atomic coordinates            atom    charge  isotop
          0.00000000    0.00000000   -0.12178984    o      8.000     0
          1.41713421    0.00000000    0.96657855    h      1.000     0
         -1.41713421    0.00000000    0.96657855    h      1.000     0
 
       center of nuclear mass  :    0.00000000    0.00000000   -0.00000000
       center of nuclear charge:    0.00000000    0.00000000    0.09588384

              +--------------------------------------------------+
              |               basis set information              |
              +--------------------------------------------------+

              we will work with the 1s 3p 5d 7f 9g ... basis set
              ...i.e. with spherical basis functions...

   type   atoms  prim   cont   basis
   ---------------------------------------------------------------------------
    o        1     24     14   def-SV(P)   [3s2p1d|7s4p1d]
    h        2      4      2   def-SV(P)   [2s|4s]
   ---------------------------------------------------------------------------
   total:    3     32     18
   ---------------------------------------------------------------------------

   total number of primitive shells          :   16
   total number of contracted shells         :   10
   total number of cartesian basis functions :   19
   total number of SCF-basis functions       :   18


 residuum convergence criterium   :  0.10E-04


 integral neglect threshold       :  0.33E-10
 integral storage threshold THIZE :  0.10E-04
 integral storage threshold THIME :         5

 RPA SINGLET-EXCITATION-CALCULATION 
 
             FOUND DFT-FLAG !
 

 symmetry group of the molecule :   c1 

 the group has the following generators :
   c1(z)

    1 symmetry operations found

 there are 1 real representations :   a   

 maximum number of shells which are related by symmetry :  1

 IRREPs of excited states :   a   
 

 determining totally symmetric integral contributions 
    - equivalent to irreducible tensor elements - 
 which can be formed within each triple of representations :

             representation triple      contributions

              a     a     a               1

    mo occupation :
   irrep   mo's   occupied
    a       18        5
 
 number of basis functions   :           18
 number of occupied orbitals :            5
 
  
           ------------------
           density functional
           ------------------
 Becke-3-Parameter hybrid functional: B3-LYP
 exchange:    0.8*LDA + 0.72*B88 + 0.2*HF
 correlation: 0.19*LDA(VWN) + 0.81*LYP
 iterations will be done with small grid
  
 spherical integration : Lebedev's spherical grid
 spherical gridsize    :           3
    i.e. gridpoints    :         302
 value for diffuse not defined
 radial integration    : Chebyshev 2nd kind (scaling 3)
 radial gridsize       :           3
 integration cells     :           3
 partition function    : becke
 partition sharpness   :           3
  

 biggest AO integral is expected to be     4.776656448
  MOs are in ASCII format !


 reading orbital data $scfmo  from file mos . 

 orbital characterization : scfconv=6
 
 preparing numerical integration ....
          Overall gridpoints after grid construction =          3534

 Calculating ground state density on molecular grid

 Integral of ground state density: N =   9.999329363173818    


 all orbitals will be included in the transformation

 number of non-frozen orbitals          :    18
 number of non-frozen occupied orbitals :     5



 dimension of super-tensorspace: 2

          IRREP   tensor space dimension   number of roots

           a                65                   5

 maximum number of Davidson iterations set to   25


 machine precision: 2.22D-16


 logfile sing_a    will be constructed


                       Block Davidson iteration


 total number of roots to be determined:   5


 maximum core memory set to   500 MB,
 corresponding to    77649 vectors in CAO basis


 maximum number of simultaneously treated vectors (including degeneracy):       10


 Iteration IRREP Converged      Max. Euclidean
                 roots          residual norm

    1       a        0        9.468177894379705D-02
 
    2       a        0        1.421095767997735D-02
 
    3       a        0        1.255192979379582D-03
 
    4       a        4        1.072186158779799D-04
 
    5       a        4        1.063052861818582D-05
 
    6       a        5        7.332682682648114D-06
 

 converged!


 Switching to fine grid

 preparing numerical integration ....
          Overall gridpoints after grid construction =         13740

 Calculating ground state density on molecular grid

 Integral of ground state density: N =   9.999998356850332    



 Iteration IRREP Converged      Max. Euclidean
                 roots          residual norm

    7       a        0        1.110004470213451D-04
 

 NOTE: Residual norms are larger than 1.00D-05 due to mgrid option!

 Eigenpairs written on logfile sing_a   



 IRREP   Vector     Eigenvalue           Euclidean residual norm

  a         1    2.791811647053618D-01    9.833348257817944D-05
            2    3.519193141720252D-01    9.547025382639970D-05
            3    3.614134911209396D-01    1.110004470213451D-04
            4    4.384064819569704D-01    4.598285201866527D-05
            5    5.256288888187371D-01    6.729012571724389D-05
 




                    Selection rules for point group c1  


 Subduction with respect to c1  :

    Polar vector representation: a                           

    Axial vector representation: a                           

    Symmetric second rank tensor representation: a                           




                            Ground state


 Total energy:                           -76.30074128232000    

 Charge:

               elec          nuc         total

           -10.000000    10.000000     0.000000


 Electric dipole moment:

               elec          nuc         total   

    x       -0.000000     0.000000    -0.000000    Norm:              0.840708
    y       -0.000000     0.000000    -0.000000
    z       -0.118130     0.958838     0.840708    Norm / debye:      2.136884


 Electric quadrupole moment:

               elec          nuc         total   

   xx       -7.246072     4.016539    -3.229534
   yy       -5.257001     0.000000    -5.257001    1/3*trace:        -4.270475
   zz       -6.312100     1.987210    -4.324890
   xy       -0.000000     0.000000    -0.000000
   xz       -0.000000     0.000000    -0.000000    Anisotropy:        1.757734
   yz       -0.000000     0.000000    -0.000000



 ==============================================================================

                              I R R E P   a   

 ==============================================================================


 Excitation is electric dipole allowed

 Excitation is magnetic dipole allowed

 Excitation is electric quadrupole allowed




                         1 singlet a excitation


 Total energy:                           -76.02156011761464    

 Excitation energy:                      0.2791811647053618    

 Excitation energy / eV:                  7.596909275999622    

 Excitation energy / nm:                  163.2035338346911    

 Excitation energy / cm^(-1):             61273.18302210516    


 Oscillator strength:

    velocity representation:             0.1046217266449252    

    length representation:               0.1810006338642328E-01

    mixed representation:                0.4351620254422708E-01


 Rotatory strength:

    velocity representation:            -0.2669747184031601E-16

    velocity rep. / 10^(-40)erg*cm^3:   -0.1724785266754645E-11

    length representation:              -0.2480784073320752E-16

    length rep. / 10^(-40)erg*cm^3:     -0.1602705996004362E-11


 Dominant contributions:

    occ. orbital  energy / eV   virt. orbital  energy / eV   |coeff.|^2*100
       5 a          -7.90           6 a           1.31          100.0
 

 Change of electron number:

             0.000000


 Electric transition dipole moment (velocity rep.):

    x       -0.000000        Norm:                  0.749745
    y       -0.749745
    z       -0.000000        Norm / debye:          1.905676


 Electric transition dipole moment (length rep.):

    x       -0.000000        Norm:                  0.311848
    y       -0.311848
    z       -0.000000        Norm / debye:          0.792644


 Magnetic transition dipole moment / i:

    x        0.000712        Norm:                  0.000712
    y        0.000000
    z        0.000000        Norm / Bohr mag.:      0.195008


 Electric quadrupole transition moment:

   xx       -0.000000
   yy       -0.000000        1/3*trace:            -0.000000
   zz       -0.000000
   xy        0.000000
   xz       -0.000000        Anisotropy:            0.149874
   yz       -0.086530




                         2 singlet a excitation


 Total energy:                           -75.94882196814798    

 Excitation energy:                      0.3519193141720252    

 Excitation energy / eV:                  9.576215877809672    

 Excitation energy / nm:                  129.4710202740613    

 Excitation energy / cm^(-1):             77237.36151410251    


 Oscillator strength:

    velocity representation:             0.4660162377537976E-25

    length representation:               0.2332841954466310E-25

    mixed representation:                0.3229701851511878E-25


 Rotatory strength:

    velocity representation:            -0.4537934656980669E-15

    velocity rep. / 10^(-40)erg*cm^3:   -0.2931724353777951E-10

    length representation:              -0.3066048352612046E-15

    length rep. / 10^(-40)erg*cm^3:     -0.1980814909131865E-10


 Dominant contributions:

    occ. orbital  energy / eV   virt. orbital  energy / eV   |coeff.|^2*100
       5 a          -7.90           7 a           3.51           99.8
 

 Change of electron number:

             0.000000


 Electric transition dipole moment (velocity rep.):

    x       -0.000000        Norm:                  0.000000
    y        0.000000
    z        0.000000        Norm / debye:          0.000000


 Electric transition dipole moment (length rep.):

    x       -0.000000        Norm:                  0.000000
    y       -0.000000
    z        0.000000        Norm / debye:          0.000000


 Magnetic transition dipole moment / i:

    x        0.000000        Norm:                  0.001047
    y       -0.000000
    z       -0.001047        Norm / Bohr mag.:      0.286918


 Electric quadrupole transition moment:

   xx        0.000000
   yy        0.000000        1/3*trace:             0.000000
   zz        0.000000
   xy       -0.285931
   xz       -0.000000        Anisotropy:            0.495247
   yz       -0.000000




                         3 singlet a excitation


 Total energy:                           -75.93932779119906    

 Excitation energy:                      0.3614134911209396    

 Excitation energy / eV:                  9.834565688074663    

 Excitation energy / nm:                  126.0698722637146    

 Excitation energy / cm^(-1):             79321.09249376594    


 Oscillator strength:

    velocity representation:             0.1695382958394144    

    length representation:               0.7755617551232245E-01

    mixed representation:                0.1146679633907469    


 Rotatory strength:

    velocity representation:             0.4579285977750116E-15

    velocity rep. / 10^(-40)erg*cm^3:    0.2958439298642613E-10

    length representation:               0.3097219977660864E-15

    length rep. / 10^(-40)erg*cm^3:      0.2000953280265498E-10


 Dominant contributions:

    occ. orbital  energy / eV   virt. orbital  energy / eV   |coeff.|^2*100
       4 a          -9.89           6 a           1.31           99.2
 

 Change of electron number:

            -0.000000


 Electric transition dipole moment (velocity rep.):

    x       -0.000000        Norm:                  0.838837
    y        0.000000
    z       -0.838837        Norm / debye:          2.132126


 Electric transition dipole moment (length rep.):

    x       -0.000000        Norm:                  0.567351
    y        0.000000
    z       -0.567351        Norm / debye:          1.442073


 Magnetic transition dipole moment / i:

    x       -0.000000        Norm:                  0.000000
    y        0.000000
    z       -0.000000        Norm / Bohr mag.:      0.000000


 Electric quadrupole transition moment:

   xx       -0.541916
   yy       -0.085031        1/3*trace:            -0.369360
   zz       -0.481132
   xy       -0.000000
   xz       -0.000000        Anisotropy:            0.429729
   yz        0.000000




                         4 singlet a excitation


 Total energy:                           -75.86233480036303    

 Excitation energy:                      0.4384064819569704    

 Excitation energy / eV:                  11.92965246402708    

 Excitation energy / nm:                  103.9294685074297    

 Excitation energy / cm^(-1):             96219.10072399229    


 Oscillator strength:

    velocity representation:             0.6134981848501997E-01

    length representation:               0.6173645870321642E-01

    mixed representation:                0.6154283496354599E-01


 Rotatory strength:

    velocity representation:             0.1589704369716493E-16

    velocity rep. / 10^(-40)erg*cm^3:    0.1027025589457474E-11

    length representation:               0.8934294642194855E-17

    length rep. / 10^(-40)erg*cm^3:      0.5771984650783417E-12


 Dominant contributions:

    occ. orbital  energy / eV   virt. orbital  energy / eV   |coeff.|^2*100
       4 a          -9.89           7 a           3.51           99.2
 

 Change of electron number:

            -0.000000


 Electric transition dipole moment (velocity rep.):

    x       -0.458156        Norm:                  0.458156
    y        0.000000
    z        0.000000        Norm / debye:          1.164526


 Electric transition dipole moment (length rep.):

    x       -0.459598        Norm:                  0.459598
    y        0.000000
    z        0.000000        Norm / debye:          1.168190


 Magnetic transition dipole moment / i:

    x       -0.000000        Norm:                  0.001037
    y        0.001037
    z        0.000000        Norm / Bohr mag.:      0.284210


 Electric quadrupole transition moment:

   xx        0.000000
   yy       -0.000000        1/3*trace:             0.000000
   zz        0.000000
   xy        0.000000
   xz       -0.647444        Anisotropy:            1.121406
   yz        0.000000




                         5 singlet a excitation


 Total energy:                           -75.77511239350126    

 Excitation energy:                      0.5256288888187371    

 Excitation energy / eV:                  14.30309593204354    

 Excitation energy / nm:                  86.68350166672916    

 Excitation energy / cm^(-1):             115362.2062587437    


 Oscillator strength:

    velocity representation:             0.2903608716992487    

    length representation:               0.2662921339041381    

    mixed representation:                0.2780662081718284    


 Rotatory strength:

    velocity representation:             0.9732142797359031E-17

    velocity rep. / 10^(-40)erg*cm^3:    0.6287432986627885E-12

    length representation:               0.1289337901910472E-16

    length rep. / 10^(-40)erg*cm^3:      0.8329743843854559E-12


 Dominant contributions:

    occ. orbital  energy / eV   virt. orbital  energy / eV   |coeff.|^2*100
       3 a         -14.35           6 a           1.31           99.2
 

 Change of electron number:

            -0.000000


 Electric transition dipole moment (velocity rep.):

    x       -0.910280        Norm:                  0.910280
    y        0.000000
    z        0.000000        Norm / debye:          2.313719


 Electric transition dipole moment (length rep.):

    x       -0.871736        Norm:                  0.871736
    y        0.000000
    z       -0.000000        Norm / debye:          2.215750


 Magnetic transition dipole moment / i:

    x       -0.000000        Norm:                  0.000501
    y       -0.000501
    z        0.000000        Norm / Bohr mag.:      0.137426


 Electric quadrupole transition moment:

   xx       -0.000000
   yy       -0.000000        1/3*trace:            -0.000000
   zz       -0.000000
   xy        0.000000
   xz       -0.878731        Anisotropy:            1.522007
   yz        0.000000


    ------------------------------------------------------------------------
         total  cpu-time :   0.08 seconds
         total wall-time :   0.08 seconds
    ------------------------------------------------------------------------


   ****  escf : all done  ****


    2019-06-10 17:11:54.973 

