
 define (neptun) : TURBOMOLE V7.0.1( 19978 ) 29 Sep 2015 at 10:17:19
 Copyright (C) 2015 TURBOMOLE GmbH, Karlsruhe


    2019-06-10 17:11:53.897 

             OPERATING SYSTEM = unix
                    HOST NAME = neptun
   STANDARD BASIS SET LIBRARY = /usr/local/chem/Turbomole7.0.1/basen/
  ALTERNATE BASIS SET LIBRARY = /usr/local/chem/Turbomole7.0.1/basold/
 LIBRARY FOR RI-J  BASIS SETS = /usr/local/chem/Turbomole7.0.1/jbasen/
 LIBRARY FOR RI-JK BASIS SETS = /usr/local/chem/Turbomole7.0.1/jkbasen/
 LIBRARY FOR RIMP2/RICC2 SETS = /usr/local/chem/Turbomole7.0.1/cbasen/
 LIBRARY FOR RIR12 BASIS SETS = /usr/local/chem/Turbomole7.0.1/cabasen/
 LIBRARY FOR OEP   BASIS SETS = /usr/local/chem/Turbomole7.0.1/xbasen/
            STRUCTURE LIBRARY = /usr/local/chem/Turbomole7.0.1/structures/

 
 ***********************************************************
 *                                                         *
 *                       D E F I N E                       *
 *                                                         *
 *         TURBOMOLE'S  INTERACTIVE  INPUT  PROGRAM        *
 *                                                         *
 *  Quantum Chemistry Group       University of Karlsruhe  *
 *                                                         *
 ***********************************************************
 

 DATA WILL BE WRITTEN TO THE NEW FILE control

 IF YOU WANT TO READ DEFAULT-DATA FROM ANOTHER control-TYPE FILE,
 THEN ENTER ITS LOCATION/NAME OR OTHERWISE HIT >return<.

 
 INPUT TITLE OR 
 ENTER & TO REPEAT DEFINITION OF DEFAULT INPUT FILE 

 SPECIFICATION OF MOLECULAR GEOMETRY ( #ATOMS=0     SYMMETRY=c1  )
 YOU MAY USE ONE OF THE FOLLOWING COMMANDS : 
 sy <group> <eps> : DEFINE MOLECULAR SYMMETRY (default for eps=3d-1)
 desy <eps>       : DETERMINE MOLECULAR SYMMETRY AND ADJUST 
                     COORDINATES (default for eps=1d-6)
 susy             : ADJUST COORDINATES FOR SUBGROUPS
 ai               : ADD ATOMIC COORDINATES INTERACTIVELY
 a <file>         : ADD ATOMIC COORDINATES FROM FILE <file>
 aa <file>        : ADD ATOMIC COORDINATES IN ANGSTROEM UNITS FROM FILE <file>
 sub              : SUBSTITUTE AN ATOM BY A GROUP OF ATOMS
 i                : INTERNAL COORDINATE MENU 
 ired             : REDUNDANT INTERNAL COORDINATES
 red_info         : DISPLAY REDUNDANT INTERNAL COORDINATES
 ff               : UFF-FORCEFIELD CALCULATION
 m                : MANIPULATE GEOMETRY
 frag             : Define Fragments for BSSE calculation
 w <file>         : WRITE MOLECULAR COORDINATES TO FILE <file> 
 r <file>         : RELOAD ATOMIC AND INTERNAL COORDINATES FROM FILE <file>
 name             : CHANGE ATOMIC IDENTIFIERS 
 del              : DELETE ATOMS 
 dis              : DISPLAY MOLECULAR GEOMETRY 
 banal            : CARRY OUT BOND ANALYSIS 
 *                : TERMINATE MOLECULAR GEOMETRY SPECIFICATION 
                     AND WRITE GEOMETRY DATA TO CONTROL FILE 

 IF YOU APPEND A QUESTION MARK TO ANY COMMAND AN EXPLANATION
 OF THAT COMMAND MAY BE GIVEN 


 CARTESIAN COORDINATES FOR   3 ATOMS HAVE SUCCESSFULLY 
 BEEN ADDED. 

 keyword $intdef  missing in file <../../coord>

 DEFINITIONS OF INTERNAL COORDINATES HAVE  N O T  BEEN READ. 
 SPECIFICATION OF BOND TOPOLOGY HAS BEEN READ. 

 SPECIFICATION OF MOLECULAR GEOMETRY ( #ATOMS=3     SYMMETRY=c1  )
 YOU MAY USE ONE OF THE FOLLOWING COMMANDS : 
 sy <group> <eps> : DEFINE MOLECULAR SYMMETRY (default for eps=3d-1)
 desy <eps>       : DETERMINE MOLECULAR SYMMETRY AND ADJUST 
                     COORDINATES (default for eps=1d-6)
 susy             : ADJUST COORDINATES FOR SUBGROUPS
 ai               : ADD ATOMIC COORDINATES INTERACTIVELY
 a <file>         : ADD ATOMIC COORDINATES FROM FILE <file>
 aa <file>        : ADD ATOMIC COORDINATES IN ANGSTROEM UNITS FROM FILE <file>
 sub              : SUBSTITUTE AN ATOM BY A GROUP OF ATOMS
 i                : INTERNAL COORDINATE MENU 
 ired             : REDUNDANT INTERNAL COORDINATES
 red_info         : DISPLAY REDUNDANT INTERNAL COORDINATES
 ff               : UFF-FORCEFIELD CALCULATION
 m                : MANIPULATE GEOMETRY
 frag             : Define Fragments for BSSE calculation
 w <file>         : WRITE MOLECULAR COORDINATES TO FILE <file> 
 r <file>         : RELOAD ATOMIC AND INTERNAL COORDINATES FROM FILE <file>
 name             : CHANGE ATOMIC IDENTIFIERS 
 del              : DELETE ATOMS 
 dis              : DISPLAY MOLECULAR GEOMETRY 
 banal            : CARRY OUT BOND ANALYSIS 
 *                : TERMINATE MOLECULAR GEOMETRY SPECIFICATION 
                     AND WRITE GEOMETRY DATA TO CONTROL FILE 

 IF YOU APPEND A QUESTION MARK TO ANY COMMAND AN EXPLANATION
 OF THAT COMMAND MAY BE GIVEN 


 YOU DID NOT YET DEFINE ANY INTERNAL COORDINATES !

 ONLY AN INCOMPLETE SET OF   -1 INTERNALS SPECIFIED
 RECOMMENDATION: USE CARTESIAN COORDINATES (ENTER no BELOW)
 FOR ANY OTHER ANSWER YOU RETURN TO THE PREVIOUS MENU AGAIN

 IF YOU DO NOT WANT TO USE INTERNAL COORDINATES ENTER  no


 GEOMETRY DATA WILL BE WRITTEN TO FILE coord


 SUPPLYING BASIS SETS TO    3 ATOMS 
 #                                                                       
 #                       BASIS SET LIBRARY FOR OXYGEN                    
 #            ECPs, HONDO-BASIS SETS FROM basen AND                      
 #     FULLY OPTIMIZED BASIS SETS FROM newbas MERGED 02/6/93             
 #                                                                       
 #         abbreviation hondo refers to the version 7.0 of HONDO         
 #                                                                       
 #                                                                       
 ########################################################################
 #       HF limit : E(3P) = -74.809398 a.u. (C. Froese Fischer, 1977)    
 ########################################################################
 #       Roothaan parameters for O(3P) in symmetry I:                    
 #        a = 15/16      b = 9/8                                         
 ########################################################################
 #                                                                       
 o def-SV(P)                                                             
 o def2-SVP                                                              
 o dhf-SVP                                                               
 o dhf-SVP-2c                                                            
 o def2-SV(P)                                                            
 o dhf-SV(P)                                                             
 o dhf-SV(P)-2c                                                          
 # o (7s4p1d)/[3s2p1d] {511/31/1}                                        
 # ROHF(equiv) energy is -74.71374601625 a.u.  (virial theorem = 2.000000
 # UHF(noneq)  energy is -74.72010092377 a.u.  (virial theorem = 2.000106
 #                                                                       
 #                    BASIS SET LIBRARY FOR HYDROGEN                     
 #            ECPs, HONDO-BASIS SETS FROM basen AND                      
 #     FULLY OPTIMIZED BASIS SETS FROM newbas MERGED 02/6/93             
 #                                                                       
 #         abbreviation hondo refers to the version 7.0 of HONDO         
 #                                                                       
 ########################################################################
 #       HF limit : E(2S) = -0.5 a.u.                                    
 ########################################################################
 #       Roothaan parameters for H(2S):                                  
 #        a = 0      b = 0                                               
 ########################################################################
 #                                                                       
 h def-SV(P)                                                             
 h def2-SV(P)                                                            
 h dhf-SV(P)                                                             
 h dhf-SV(P)-2c                                                          
 # HF(equiv) energy is -0.49927840571 a.u.  (virial theorem = 2.000000001
 # (4s)/[2s] {31}                                                        
 # H. Horn, Aug. 91                                                      
 
 ==============================================================================
 NOTE: Improved basis sets are available for H-Rn ("def2-bases").
 For further information type "bi".
 ==============================================================================

 ATOMIC ATTRIBUTE DEFINITION MENU  ( #atoms=3     #bas=3     #ecp=0     )

 b    : ASSIGN ATOMIC BASIS SETS 
 bb   : b RESTRICTED TO BASIS SET LIBRARY 
 bl   : LIST ATOMIC BASIS SETS ASSIGNED
 bm   : MODIFY DEFINITION OF ATOMIC BASIS SET
 bp   : SWITCH BETWEEN 5d/7f AND 6d/10f
 lib  : SELECT BASIS SET LIBRARY
 ecp  : ASSIGN EFFECTIVE CORE POTENTIALS 
 ecpb : ecp RESTRICTED TO BASIS SET LIBRARY 
 ecpi : GENERAL INFORMATION ABOUT EFFECTIVE CORE POTENTIALS
 ecpl : LIST EFFECTIVE CORE POTENTIALS ASSIGNED
 ecprm: REMOVE EFFECTIVE CORE POTENTIAL(S)
 c    : ASSIGN NUCLEAR CHARGES (IF DIFFERENT FROM DEFAULTS) 
 cem  : ASSIGN NUCLEAR CHARGES FOR EMBEDDING 
 m    : ASSIGN ATOMIC MASSES (IF DIFFERENT FROM DEFAULTS) 
 dis  : DISPLAY MOLECULAR GEOMETRY 
 dat  : DISPLAY ATOMIC ATTRIBUTES YET ESTABLISHED 
 h    : EXPLANATION OF ATTRIBUTE DEFINITION SYNTAX 
 *    : TERMINATE THIS SECTION AND WRITE DATA OR DATA REFERENCES TO control
 GOBACK=& (TO GEOMETRY MENU !)


 SUPPLYING BASIS SETS TO    3 ATOMS 
 #                                                                       
 #                       BASIS SET LIBRARY FOR OXYGEN                    
 #            ECPs, HONDO-BASIS SETS FROM basen AND                      
 #     FULLY OPTIMIZED BASIS SETS FROM newbas MERGED 02/6/93             
 #                                                                       
 #         abbreviation hondo refers to the version 7.0 of HONDO         
 #                                                                       
 #                                                                       
 ########################################################################
 #       HF limit : E(3P) = -74.809398 a.u. (C. Froese Fischer, 1977)    
 ########################################################################
 #       Roothaan parameters for O(3P) in symmetry I:                    
 #        a = 15/16      b = 9/8                                         
 ########################################################################
 #                                                                       
 o aug-cc-pVDZ                                                           
 o YP-aug-cc-pVDZ                                                        
 # ROHF(equiv) energy is -74.78905189051 a.u.  (virial theorem = 1.999448
 # UHF(noneq)  energy is -74.79660075444 a.u.  (virial theorem = 1.999516
 #                                                                       
 #                    BASIS SET LIBRARY FOR HYDROGEN                     
 #            ECPs, HONDO-BASIS SETS FROM basen AND                      
 #     FULLY OPTIMIZED BASIS SETS FROM newbas MERGED 02/6/93             
 #                                                                       
 #         abbreviation hondo refers to the version 7.0 of HONDO         
 #                                                                       
 ########################################################################
 #       HF limit : E(2S) = -0.5 a.u.                                    
 ########################################################################
 #       Roothaan parameters for H(2S):                                  
 #        a = 0      b = 0                                               
 ########################################################################
 #                                                                       
 h aug-cc-pVDZ                                                           
 h YP-aug-cc-pVDZ                                                        
 # h     (5s2p) / [3s2p]                                                 
 # HF(equiv) energy is -0.49933431544 a.u.  (virial theorem = 1.997095848
 # Ref.: T.H. Dunning; JCP 90, 1007 (1989).                              
 # Diffuse Function Augmented Polarized Valence Double Zeta (aug-cc-pVDZ)

 ATOMIC ATTRIBUTE DEFINITION MENU  ( #atoms=3     #bas=3     #ecp=0     )

 b    : ASSIGN ATOMIC BASIS SETS 
 bb   : b RESTRICTED TO BASIS SET LIBRARY 
 bl   : LIST ATOMIC BASIS SETS ASSIGNED
 bm   : MODIFY DEFINITION OF ATOMIC BASIS SET
 bp   : SWITCH BETWEEN 5d/7f AND 6d/10f
 lib  : SELECT BASIS SET LIBRARY
 ecp  : ASSIGN EFFECTIVE CORE POTENTIALS 
 ecpb : ecp RESTRICTED TO BASIS SET LIBRARY 
 ecpi : GENERAL INFORMATION ABOUT EFFECTIVE CORE POTENTIALS
 ecpl : LIST EFFECTIVE CORE POTENTIALS ASSIGNED
 ecprm: REMOVE EFFECTIVE CORE POTENTIAL(S)
 c    : ASSIGN NUCLEAR CHARGES (IF DIFFERENT FROM DEFAULTS) 
 cem  : ASSIGN NUCLEAR CHARGES FOR EMBEDDING 
 m    : ASSIGN ATOMIC MASSES (IF DIFFERENT FROM DEFAULTS) 
 dis  : DISPLAY MOLECULAR GEOMETRY 
 dat  : DISPLAY ATOMIC ATTRIBUTES YET ESTABLISHED 
 h    : EXPLANATION OF ATTRIBUTE DEFINITION SYNTAX 
 *    : TERMINATE THIS SECTION AND WRITE DATA OR DATA REFERENCES TO control
 GOBACK=& (TO GEOMETRY MENU !)


 BASIS SETS WILL BE WRITTEN TO FILE basis BY DEFAULT


              ATOMIC COORDINATES              ATOM SHELLS CHARGE PSEUDO MASS
     0.00000000    0.00000000   -0.12178984    o      9      8.     0 15.999
     1.41713421    0.00000000    0.96657855    h      5      1.     0  1.008
    -1.41713421    0.00000000    0.96657855    h      5      1.     0  1.008
 

 we will work with the  1s 3p 5d  7f  9g basis set


 there are 1 real representations :   a   

 OCCUPATION NUMBER & MOLECULAR ORBITAL DEFINITION MENU 

 CHOOSE COMMAND 
 infsao     : OUTPUT SAO INFORMATION 
 atb        : Switch for writing MOs in ASCII or binary format
 eht        : PROVIDE MOS && OCCUPATION NUMBERS FROM EXTENDED HUECKEL GUESS 
 use <file> : SUPPLY MO INFORMATION USING DATA FROM <file> 
 man        : MANUAL SPECIFICATION OF OCCUPATION NUMBERS 
 hcore      : HAMILTON CORE GUESS FOR MOS
 flip       : FLIP SPIN OF A SELECTED ATOM
 &          : MOVE BACK TO THE ATOMIC ATTRIBUTES MENU
 THE COMMANDS  use  OR  eht  OR  *  OR q(uit) TERMINATE THIS MENU !!! 
 FOR EXPLANATIONS APPEND A QUESTION MARK (?) TO ANY COMMAND 


 PROVIDING EHT AOS FOR THE FOLLOWING SET OF ATOMS :
     1 o       
 for the   8 electrons of the actual atom you have
 to provide at least basis functions for the AO's :   2s  1p  0d  0f


 reading orbital data 3P(DZ)  from file /usr/local/chem/Turbomole7.0.1/basen/o . 

 

 PROVIDING EHT AOS FOR THE FOLLOWING SET OF ATOMS :
     2 h            3 h       
 for the   1 electrons of the actual atom you have
 to provide at least basis functions for the AO's :   1s  0p  0d  0f


 reading orbital data 2S(DZ)  from file /usr/local/chem/Turbomole7.0.1/basen/h . 

 

    sao summary :
   irrep      number of sao's referring to
                old basis    new basis
    a               7           41

 EFFECTIVE NUMBER OF NON-VANISHING CARTESIAN 
 OVERLAP MATRIX ELEMENTS   :    1275


 DO YOU WANT THE DEFAULT PARAMETERS FOR THE EXTENDED HUECKEL CALCULATION ? 
 DEFAULT=y   HELP=? 


 ENTER THE MOLECULAR CHARGE  (DEFAULT=0) 


 NUMBER OF ELECTRONS IN YOUR MOLECULE IS   10


 AUTOMATIC OCCUPATION NUMBER ASSIGNMENT ESTABLISHED !
 FOUND CLOSED SHELL SYSTEM !
 HOMO/LUMO-SEPARATION :  0.923683
 ORBITAL  SYMMETRY      ENERGY     DEFAULT 
 (SHELL)    TYPE                 OCCUPATION 
     2     2a          -1.25957      2
     3     3a          -0.68474      2
     4     4a          -0.63782      2
     5     5a          -0.62277      2
     6     6a           0.30091      0
     7     7a           0.63121      0

 DO YOU ACCEPT THIS OCCUPATION ?  DEFAULT=y 


 projection quality sqrt{sum[1-<i|i>]}/korb irrep a    :  0.22D-02

 PROVIDING  'derivative'  DEFAULT PARAMETERS ...

 PROVIDING FORCE RELAXATION DEFAULT PARAMETERS ...

 FILE SPACE LOCKING WILL BE DISABLED BY DEFAULT !


 GENERAL MENU : SELECT YOUR TOPIC 
 scf    : SELECT NON-DEFAULT SCF PARAMETER 
 mp2    : OPTIONS AND DATA GROUPS FOR rimp2 and mpgrad
 cc     : OPTIONS AND DATA GROUPS FOR ricc2
 pnocc  : OPTIONS AND DATA GROUPS FOR pnoccsd
 ex     : EXCITED STATE AND RESPONSE OPTIONS
 prop   : SELECT TOOLS FOR SCF-ORBITAL ANALYSIS 
 drv    : SELECT NON-DEFAULT INPUT PARAMETER FOR EVALUATION
          OF ANALYTICAL ENERGY DERIVATIVES 
          (GRADIENTS, FORCE CONSTANTS) 
 rex    : SELECT OPTIONS FOR GEOMETRY UPDATES USING RELAX
 stp    : SELECT NON-DEFAULT STRUCTURE OPTIMIZATION PARAMETER
 e      : DEFINE EXTERNAL ELECTROSTATIC FIELD 
 dft    : DFT Parameters 
 ri     : RI Parameters 
 rijk   : RI-JK-HF Parameters 
 rirpa  : RIRPA Parameters 
 senex  : seminumeric exchange parameters 
 hybno  : hybrid Noga/Diag parameters
 dsp    : DFT dispersion correction
 trunc  : USE TRUNCATED AUXBASIS DURING ITERATIONS 
 marij  : MULTIPOLE ACCELERATED RI-J 
 dis    : DISPLAY MOLECULAR GEOMETRY 
 list   : LIST OF CONTROL FILE 
 &      : GO BACK TO OCCUPATION/ORBITAL ASSIGNMENT MENU

 * or q : END OF DEFINE SESSION 


 INPUT MENU FOR CALCULATIONS WITH ricc2:
 (#atoms=  3   #bas=  3   #cbas=  0   #cabs=  0   #jkbas=  0   )
 freeze  : SET FROZEN OCCUPIED/VIRTUAL ORBITAL OPTIONS
 cbas    : ASSIGN AUXILIARY (CBAS) BASIS SETS
 memory  : SET MAXIMUM CORE MEMORY (PRESENT VALUE:    500 Mb)
 denconv : CONVERGENCE THRESHOLD FOR SCF DENSITY (0.1E-06 )
 tmpdir  : DEFINE PATH FOR TEMPORY FILES
 ricc2   : DATA GROUP $ricc2 (MODELS AND GLOBAL OPTIONS)
 f12     : DATA GROUP $rir12 (F12 APPROX. AND OPTIONS)
 exci    : INPUT FOR CALCULATION OF EXCITATION ENERGIES
 resp    : INPUT FOR GROUND STATE PROPERTIES
 cabs    : ASSIGN COMPLEMENTARY AUXILIARY (CABS) BASIS SETS
 jkbas   : ASSIGN AUXILIARY BASIS FOR FOCK MATRICES (JKBAS)
 other   : OTHER DIVERSE OPTIONS
 * / end : SAVE DEFINITIONS AND LEAVE MENU

 NO DEFINITION OF BASIS SETS ($cbas) IN control
  TRY TO OBTAIN BASIS SETS FROM LIBRARY !

 keyword $cbas  missing in file <control>

 o aug-cc-pVDZ                                                           
 o d-aug-cc-pVDZ                                                         
 # o (8s6p5d3f)                                                          
 # anion:                                                                
 #  MP2-energy (RI):    -0.17820541 H                                    
 #  EMP2(RI) - EMP2:    14.025644   uH                                   
 #  delta/|EMP2|:        0.142160   ppm                                  
 # neutral atom:                                                         
 #  MP2-energy (RI):    -0.11223152 H                                    
 #  EMP2(RI) - EMP2:     1.384212   uH                                   
 #  delta/|EMP2|:        0.157103   ppm                                  
 # Ref.: C. Hättig, PCCP 7 (2005) 59-66.                                 
 # Ref.: Weigend, Köhn, Hättig, JCP 116 (2002) 3175.                     

 keyword $cbas  missing in file <control>

 h aug-cc-pVDZ                                                           
 h d-aug-cc-pVDZ                                                         
 # h     (4s3p2d)                                                        
 # h2 molecule, r=1.4115 bohr:                                           
 #  MP2-energy (RI):    -0.02733964 H                                    
 #  EMP2(RI) - EMP2:     7.851745   uH                                   
 #  delta/|EMP2|:        0.079108   ppm                                  
 # h2- anion, r=1.4115 bohr:                                             
 #  MP2-energy (RI):    -0.02954592 H                                    
 #  EMP2(RI) - EMP2:     5.849918   uH                                   
 #  delta/|EMP2|:        0.905241   ppm                                  
 # Ref.: Weigend, Köhn, Hättig, JCP 116 (2002) 3175.                     

 keyword $cbas  missing in file <control>

 o aug-cc-pVDZ                                                           
 o d-aug-cc-pVDZ                                                         
 # o (8s6p5d3f)                                                          
 # anion:                                                                
 #  MP2-energy (RI):    -0.17820541 H                                    
 #  EMP2(RI) - EMP2:    14.025644   uH                                   
 #  delta/|EMP2|:        0.142160   ppm                                  
 # neutral atom:                                                         
 #  MP2-energy (RI):    -0.11223152 H                                    
 #  EMP2(RI) - EMP2:     1.384212   uH                                   
 #  delta/|EMP2|:        0.157103   ppm                                  
 # Ref.: C. Hättig, PCCP 7 (2005) 59-66.                                 
 # Ref.: Weigend, Köhn, Hättig, JCP 116 (2002) 3175.                     

 keyword $cbas  missing in file <control>

 h aug-cc-pVDZ                                                           
 h d-aug-cc-pVDZ                                                         
 # h     (4s3p2d)                                                        
 # h2 molecule, r=1.4115 bohr:                                           
 #  MP2-energy (RI):    -0.02733964 H                                    
 #  EMP2(RI) - EMP2:     7.851745   uH                                   
 #  delta/|EMP2|:        0.079108   ppm                                  
 # h2- anion, r=1.4115 bohr:                                             
 #  MP2-energy (RI):    -0.02954592 H                                    
 #  EMP2(RI) - EMP2:     5.849918   uH                                   
 #  delta/|EMP2|:        0.905241   ppm                                  
 # Ref.: Weigend, Köhn, Hättig, JCP 116 (2002) 3175.                     

 AUXILIARY BASIS SET DEFINITION MENU 
 ( #atoms=3     #cbas=3     )
 b      : ASSIGN ATOMIC BASIS SETS 
 bb     : b RESTRICTED TO BASIS SET LIBRARY 
 bl     : LIST ATOMIC BASIS SETS ASSIGNED
 bm     : MODIFY DEFINITION OF ATOMIC BASIS SET
 lib    : SELECT BASIS SET LIBRARY
 dis    : DISPLAY MOLECULAR GEOMETRY 
 dat    : DISPLAY ATOMIC ATTRIBUTES YET ESTABLISHED 
 h      : EXPLANATION OF ATTRIBUTE DEFINITION SYNTAX 
 * / end: END THIS SECTION AND SAVE DATA ON FILE control

 INPUT MENU FOR CALCULATIONS WITH ricc2:
 (#atoms=  3   #bas=  3   #cbas=  3   #cabs=  0   #jkbas=  0   )
 freeze  : SET FROZEN OCCUPIED/VIRTUAL ORBITAL OPTIONS
 cbas    : ASSIGN AUXILIARY (CBAS) BASIS SETS
 memory  : SET MAXIMUM CORE MEMORY (PRESENT VALUE:    500 Mb)
 denconv : CONVERGENCE THRESHOLD FOR SCF DENSITY (0.1E-06 )
 tmpdir  : DEFINE PATH FOR TEMPORY FILES
 ricc2   : DATA GROUP $ricc2 (MODELS AND GLOBAL OPTIONS)
 f12     : DATA GROUP $rir12 (F12 APPROX. AND OPTIONS)
 exci    : INPUT FOR CALCULATION OF EXCITATION ENERGIES
 resp    : INPUT FOR GROUND STATE PROPERTIES
 cabs    : ASSIGN COMPLEMENTARY AUXILIARY (CABS) BASIS SETS
 jkbas   : ASSIGN AUXILIARY BASIS FOR FOCK MATRICES (JKBAS)
 other   : OTHER DIVERSE OPTIONS
 * / end : SAVE DEFINITIONS AND LEAVE MENU

 <model>    : add wavefunction model to calculation
              (type 'list models' for a list)
 scs,sos    : switches for spin component scaled MP2
              (type 'list scs' for details)
 oconv <n>  : threshold for vector function    (10^ -5.)
 conv <n>   : convergence threshold for energy (10^ -6.)
 lindep     : linear dependence threshold      (10^-14.)
 maxiter    : max. number of iterations        ( 100)
 mxdiis     : max. number of DIIS vectors      (  10)
 maxred     : max. dim. of reduced space       ( 100)
 geoopt <m> <x> : optimize geometry for wavefunction <m>
                  and state <x> (type 'list geoopt' for details)
 *,end      : write $ricc2 to file and leave the menu
 &          : go back - leaving $ricc2 unchanged...


 <model>    : add wavefunction model to calculation
              (type 'list models' for a list)
 scs,sos    : switches for spin component scaled MP2
              (type 'list scs' for details)
 oconv <n>  : threshold for vector function    (10^ -5.)
 conv <n>   : convergence threshold for energy (10^ -6.)
 lindep     : linear dependence threshold      (10^-14.)
 maxiter    : max. number of iterations        ( 100)
 mxdiis     : max. number of DIIS vectors      (  10)
 maxred     : max. dim. of reduced space       ( 100)
 geoopt <m> <x> : optimize geometry for wavefunction <m>
                  and state <x> (type 'list geoopt' for details)
 *,end      : write $ricc2 to file and leave the menu
 &          : go back - leaving $ricc2 unchanged...


 INPUT MENU FOR CALCULATIONS WITH ricc2:
 (#atoms=  3   #bas=  3   #cbas=  3   #cabs=  0   #jkbas=  0   )
 freeze  : SET FROZEN OCCUPIED/VIRTUAL ORBITAL OPTIONS
 cbas    : ASSIGN AUXILIARY (CBAS) BASIS SETS
 memory  : SET MAXIMUM CORE MEMORY (PRESENT VALUE:    500 Mb)
 denconv : CONVERGENCE THRESHOLD FOR SCF DENSITY (0.1E-06 )
 tmpdir  : DEFINE PATH FOR TEMPORY FILES
 ricc2   : DATA GROUP $ricc2 (MODELS AND GLOBAL OPTIONS)
 f12     : DATA GROUP $rir12 (F12 APPROX. AND OPTIONS)
 exci    : INPUT FOR CALCULATION OF EXCITATION ENERGIES
 resp    : INPUT FOR GROUND STATE PROPERTIES
 cabs    : ASSIGN COMPLEMENTARY AUXILIARY (CABS) BASIS SETS
 jkbas   : ASSIGN AUXILIARY BASIS FOR FOCK MATRICES (JKBAS)
 other   : OTHER DIVERSE OPTIONS
 * / end : SAVE DEFINITIONS AND LEAVE MENU

 irrep       : number of excitations for a given symmetry
 spectrum    : give input for spectrum (transition moments)
 exprop      : give input for excited state properties
 conv <n>    : convergence threshold for energy    (10^ -6.)
 thrdiis <n> : threshold for switching on DIIS     (10^ -2.)
 preopt <n>  : threshold for pre-optimization      (10^-Inf)
 list <opt>  : print status & help for option <opt>
 del  <opt>  : delete input for option <opt>
 * / end     : write $ricc2 to file and leave the menu
 &           : go back - leaving $ricc2 unchanged...
 <opt> = irrep, spectrum, or exprop


 irrep       : number of excitations for a given symmetry
 spectrum    : give input for spectrum (transition moments)
 exprop      : give input for excited state properties
 conv <n>    : convergence threshold for energy    (10^ -6.)
 thrdiis <n> : threshold for switching on DIIS     (10^ -2.)
 preopt <n>  : threshold for pre-optimization      (10^-Inf)
 list <opt>  : print status & help for option <opt>
 del  <opt>  : delete input for option <opt>
 * / end     : write $ricc2 to file and leave the menu
 &           : go back - leaving $ricc2 unchanged...
 <opt> = irrep, spectrum, or exprop


 INPUT MENU FOR CALCULATIONS WITH ricc2:
 (#atoms=  3   #bas=  3   #cbas=  3   #cabs=  0   #jkbas=  0   )
 freeze  : SET FROZEN OCCUPIED/VIRTUAL ORBITAL OPTIONS
 cbas    : ASSIGN AUXILIARY (CBAS) BASIS SETS
 memory  : SET MAXIMUM CORE MEMORY (PRESENT VALUE:    500 Mb)
 denconv : CONVERGENCE THRESHOLD FOR SCF DENSITY (0.1E-06 )
 tmpdir  : DEFINE PATH FOR TEMPORY FILES
 ricc2   : DATA GROUP $ricc2 (MODELS AND GLOBAL OPTIONS)
 f12     : DATA GROUP $rir12 (F12 APPROX. AND OPTIONS)
 exci    : INPUT FOR CALCULATION OF EXCITATION ENERGIES
 resp    : INPUT FOR GROUND STATE PROPERTIES
 cabs    : ASSIGN COMPLEMENTARY AUXILIARY (CABS) BASIS SETS
 jkbas   : ASSIGN AUXILIARY BASIS FOR FOCK MATRICES (JKBAS)
 other   : OTHER DIVERSE OPTIONS
 * / end : SAVE DEFINITIONS AND LEAVE MENU

 GENERAL MENU : SELECT YOUR TOPIC 
 scf    : SELECT NON-DEFAULT SCF PARAMETER 
 mp2    : OPTIONS AND DATA GROUPS FOR rimp2 and mpgrad
 cc     : OPTIONS AND DATA GROUPS FOR ricc2
 pnocc  : OPTIONS AND DATA GROUPS FOR pnoccsd
 ex     : EXCITED STATE AND RESPONSE OPTIONS
 prop   : SELECT TOOLS FOR SCF-ORBITAL ANALYSIS 
 drv    : SELECT NON-DEFAULT INPUT PARAMETER FOR EVALUATION
          OF ANALYTICAL ENERGY DERIVATIVES 
          (GRADIENTS, FORCE CONSTANTS) 
 rex    : SELECT OPTIONS FOR GEOMETRY UPDATES USING RELAX
 stp    : SELECT NON-DEFAULT STRUCTURE OPTIMIZATION PARAMETER
 e      : DEFINE EXTERNAL ELECTROSTATIC FIELD 
 dft    : DFT Parameters 
 ri     : RI Parameters 
 rijk   : RI-JK-HF Parameters 
 rirpa  : RIRPA Parameters 
 senex  : seminumeric exchange parameters 
 hybno  : hybrid Noga/Diag parameters
 dsp    : DFT dispersion correction
 trunc  : USE TRUNCATED AUXBASIS DURING ITERATIONS 
 marij  : MULTIPOLE ACCELERATED RI-J 
 dis    : DISPLAY MOLECULAR GEOMETRY 
 list   : LIST OF CONTROL FILE 
 &      : GO BACK TO OCCUPATION/ORBITAL ASSIGNMENT MENU

 * or q : END OF DEFINE SESSION 

 
 ***********************************************************
 *                                                         *
 *                       e n d   o f                       *
 *                       D E F I N E                       *
 *                                                         *
 *         TURBOMOLE'S  INTERACTIVE  INPUT  PROGRAM        *
 *                                                         *
 *  Quantum Chemistry Group       University of Karlsruhe  *
 *                                                         *
 ***********************************************************


    ------------------------------------------------------------------------
         total  cpu-time :   0.05 seconds
         total wall-time :   0.05 seconds
    ------------------------------------------------------------------------


   ****  define : all done  ****


    2019-06-10 17:11:53.943 

 operating system is UNIX !
 hostname is         neptun

 dscf (neptun) : TURBOMOLE V7.0.1( 19978 ) 29 Sep 2015 at 10:17:19
 Copyright (C) 2015 TURBOMOLE GmbH, Karlsruhe


    2019-06-10 17:11:53.948 



                             d s c f - program

                   idea & directorship : reinhart ahlrichs
                   program development : marco haeser
                                         michael baer
                           dft version : oliver treutler


                          quantum chemistry group
                          universitaet  karlsruhe
                                  germany




                          References             
                                                 
          TURBOMOLE:                             
              R. Ahlrichs, M. Baer, M. Haeser, H. Horn, and
              C. Koelmel
              Electronic structure calculations on workstation
              computers: the program system TURBOMOLE
              Chem. Phys. Lett. 162: 165 (1989)
          Density Functional:                              
              O. Treutler and R. Ahlrichs                      
              Efficient Molecular Numerical Integration Schemes
              J. Chem. Phys. 102: 346 (1995)                   
          Parallel Version:                                
              Performance of parallel TURBOMOLE for Density    
              Functional Calculations                          
              M. v. Arnim and R. Ahlrichs                      
              J. Comp. Chem. 19: 1746 (1998)                   
                                         




              +--------------------------------------------------+
              | Atomic coordinate, charge and isotop information |
              +--------------------------------------------------+

                    atomic coordinates            atom    charge  isotop
          0.00000000    0.00000000   -0.12178984    o      8.000     0
          1.41713421    0.00000000    0.96657855    h      1.000     0
         -1.41713421    0.00000000    0.96657855    h      1.000     0
 
       center of nuclear mass  :    0.00000000    0.00000000   -0.00000000
       center of nuclear charge:    0.00000000    0.00000000    0.09588384

              +--------------------------------------------------+
              |               basis set information              |
              +--------------------------------------------------+

              we will work with the 1s 3p 5d 7f 9g ... basis set
              ...i.e. with spherical basis functions...

   type   atoms  prim   cont   basis
   ---------------------------------------------------------------------------
    o        1     43     23   aug-cc-pVDZ   [4s3p2d|18s5p2d]
    h        2     11      9   aug-cc-pVDZ   [3s2p|5s2p]
   ---------------------------------------------------------------------------
   total:    3     65     41
   ---------------------------------------------------------------------------

   total number of primitive shells          :   32
   total number of contracted shells         :   19
   total number of cartesian basis functions :   43
   total number of SCF-basis functions       :   41


 integral neglect threshold       :  0.78E-10
 integral storage threshold THIZE :  0.10E-04
 integral storage threshold THIME :         5


 DENSITY CONVERGENCE CHECK SWITCHED ON !
 SCF CONVERGENCE IF RMS(delta[D]) <     0.1000000000E-06


 symmetry group of the molecule :   c1 

 the group has the following generators :
   c1(z)

    1 symmetry operations found

 there are 1 real representations :   a   

 maximum number of shells which are related by symmetry :  1


    mo occupation :
   irrep   mo's   occupied
    a       41        5
 
 number of basis functions   :           41
 number of occupied orbitals :            5
 

          ------------------------
          nuclear repulsion energy  :   9.30715477358    
          ------------------------

 
          -----------------
          -S,T+V- integrals
          -----------------

 1e-integrals will be neglected if expon. factor < 0.777200E-11
 
   Difference densities algorithm switched on.
   The maximal number of linear combinations of
   difference densities is          20 .

 automatic virtual orbital shift switched on 
      shift if e(lumo)-e(homo) < 0.10000000    


 DIIS switched on: error vector is FDS-SDF
 Max. Iterations for DIIS is     :   5
 DIIS matrix (see manual) 
    Scaling factor of diagonals  :  1.200
    threshold for scaling factor :  0.000

 scf convergence criterion : increment of total energy < .1000000D-06
                  and increment of one-electron energy < .1000000D-03


 <geterg> : there is no data group $energy 

  MOs are in ASCII format !


 reading orbital data $scfmo  from file mos . 

 orbital characterization : expanded
 
 mo provided and orthogonalized by Cholesky decomposition

 DSCF restart information will be dumped onto file mos

 
                                              current damping :  0.300
 ITERATION  ENERGY          1e-ENERGY        2e-ENERGY     RMS[dD(SAO)]   TOL
   1  -75.802115063168    -124.50258700     39.393317165    0.000D+00 0.775D-10
          max. resid. norm for Fia-block=  3.016D-01 for orbital      4a         
          max. resid. fock norm         =  1.515D+00 for orbital      6a         
          Delta Eig. =    50.6714291971 eV 
 
                                              current damping :  0.250
 ITERATION  ENERGY          1e-ENERGY        2e-ENERGY     RMS[dD(SAO)]   TOL
   2  -76.014740820974    -123.07631914     37.754423546    0.206D-01 0.519D-10
          Norm of current diis error: 0.56473    
          max. resid. norm for Fia-block=  9.907D-02 for orbital      1a         
          max. resid. fock norm         =  1.126D-01 for orbital     36a         
          Delta Eig. =     9.7916227243 eV 
 
                                              current damping :  0.200
 ITERATION  ENERGY          1e-ENERGY        2e-ENERGY     RMS[dD(SAO)]   TOL
   3  -76.037180047758    -123.34664672     38.002311903    0.710D-02 0.410D-10
          Norm of current diis error: 0.19374    
          max. resid. norm for Fia-block=  3.539D-02 for orbital      4a         
          max. resid. fock norm         =  3.616D-02 for orbital      4a         
          Delta Eig. =     2.8728811586 eV 
 
                                              current damping :  0.250
 ITERATION  ENERGY          1e-ENERGY        2e-ENERGY     RMS[dD(SAO)]   TOL
   4  -76.041220528046    -123.14964247     37.801267165    0.314D-02 0.358D-10
          Norm of current diis error: 0.67975E-01
          max. resid. norm for Fia-block=  1.258D-02 for orbital      3a         
          max. resid. fock norm         =  1.258D-02 for orbital      3a         
          Delta Eig. =     0.5788520584 eV 
 
                                              current damping :  0.300
 ITERATION  ENERGY          1e-ENERGY        2e-ENERGY     RMS[dD(SAO)]   TOL
   5  -76.041726539670    -123.18203629     37.833154978    0.117D-02 0.329D-10
          Norm of current diis error: 0.22558E-01
          max. resid. norm for Fia-block=  5.013D-03 for orbital      4a         
          max. resid. fock norm         =  5.056D-03 for orbital      4a         
 mo-orthogonalization: Cholesky decomposition
          Delta Eig. =     0.0664624118 eV 
 
                                              current damping :  0.350
 ITERATION  ENERGY          1e-ENERGY        2e-ENERGY     RMS[dD(SAO)]   TOL
   6  -76.041800620153    -123.17498132     37.826025926    0.464D-03 0.306D-10
          Norm of current diis error: 0.84689E-02
          max. resid. norm for Fia-block=  2.105D-03 for orbital      3a         
          max. resid. fock norm         =  2.105D-03 for orbital      3a         
          Delta Eig. =     0.0303778841 eV 
 
                                              current damping :  0.400
 ITERATION  ENERGY          1e-ENERGY        2e-ENERGY     RMS[dD(SAO)]   TOL
   7  -76.041811415122    -123.17529530     37.826329112    0.174D-03 0.287D-10
          Norm of current diis error: 0.31456E-02
          max. resid. norm for Fia-block=  8.360D-04 for orbital      3a         
          max. resid. fock norm         =  8.360D-04 for orbital      3a         
          Delta Eig. =     0.0096534765 eV 
 
                                              current damping :  0.450
 ITERATION  ENERGY          1e-ENERGY        2e-ENERGY     RMS[dD(SAO)]   TOL
   8  -76.041812997003    -123.17497409     37.826006323    0.637D-04 0.271D-10
          Norm of current diis error: 0.12669E-02
          max. resid. norm for Fia-block=  3.693D-04 for orbital      3a         
          max. resid. fock norm         =  3.693D-04 for orbital      3a         
          Delta Eig. =     0.0040882346 eV 
 
                                              current damping :  0.500
 ITERATION  ENERGY          1e-ENERGY        2e-ENERGY     RMS[dD(SAO)]   TOL
   9  -76.041813252799    -123.17503282     37.826064790    0.241D-04 0.255D-10
          Norm of current diis error: 0.51691E-03
          max. resid. norm for Fia-block=  1.431D-04 for orbital      3a         
          max. resid. fock norm         =  1.431D-04 for orbital      3a         
          Delta Eig. =     0.0011997114 eV 
 
                                              current damping :  0.550
 ITERATION  ENERGY          1e-ENERGY        2e-ENERGY     RMS[dD(SAO)]   TOL
  10  -76.041813294469    -123.17494086     37.825972788    0.897D-05 0.242D-10
          Norm of current diis error: 0.22258E-03
          max. resid. norm for Fia-block=  6.629D-05 for orbital      3a         
          max. resid. fock norm         =  6.629D-05 for orbital      3a         
 mo-orthogonalization: Cholesky decomposition
          Delta Eig. =     0.0006097833 eV 
 
                                              current damping :  0.600
 ITERATION  ENERGY          1e-ENERGY        2e-ENERGY     RMS[dD(SAO)]   TOL
  11  -76.041813301938    -123.17496469     37.825996613    0.353D-05 0.230D-10
          Norm of current diis error: 0.94759E-04
          max. resid. norm for Fia-block=  2.765D-05 for orbital      4a         
          max. resid. fock norm         =  2.792D-05 for orbital      4a         
          Delta Eig. =     0.0001739248 eV 

 ENERGY & DENSITY CONVERGED !

 
                                              current damping :  0.650
 ITERATION  ENERGY          1e-ENERGY        2e-ENERGY     RMS[dD(SAO)]   TOL
  12  -76.041813303357    -123.17495534     37.825987268    0.135D-05 0.221D-10
          max. resid. norm for Fia-block=  7.307D-06 for orbital      4a         
          max. resid. fock norm         =  7.400D-06 for orbital      4a         

 convergence criteria satisfied after 12 iterations


                  ------------------------------------------ 
                 |  total energy      =    -76.04181330336  |
                  ------------------------------------------ 
                 :  kinetic energy    =     75.97428990318  :
                 :  potential energy  =   -152.01610320654  :
                 :  virial theorem    =      1.99911202275  :
                 :  wavefunction norm =      1.00000000000  :
                  .......................................... 


 <geterg> : there is no data group $energy 


 <skperg> : $end is missing 


 orbitals $scfmo  will be written to file mos

    irrep                  1a          2a          3a          4a          5a   
 eigenvalues H        -20.57507    -1.36246    -0.72664    -0.58701    -0.51031
            eV        -559.8806    -37.0747    -19.7730    -15.9735    -13.8863
 occupation              2.0000      2.0000      2.0000      2.0000      2.0000 

    irrep                  6a          7a          8a          9a         10a   
 eigenvalues H          0.03567     0.05795     0.17373     0.19604     0.22342
            eV           0.9706      1.5768      4.7274      5.3344      6.0796
 
 
 
 
 ==============================================================================
                           electrostatic moments
 ==============================================================================

 reference point for electrostatic moments:    0.00000   0.00000   0.00000

 
              nuc           elec       ->  total
 ------------------------------------------------------------------------------
                          charge      
 ------------------------------------------------------------------------------
          10.000000     -10.000000      -0.000000
 
 ------------------------------------------------------------------------------
                       dipole moment  
 ------------------------------------------------------------------------------
   x       0.000000       0.000000       0.000000
   y       0.000000       0.000000       0.000000
   z       0.958838      -0.178985       0.779853
 
   | dipole moment | =     0.7799 a.u. =     1.9822 debye 
 
 ------------------------------------------------------------------------------
                     quadrupole moment
 ------------------------------------------------------------------------------
  xx       4.016539      -7.204028      -3.187489
  yy       0.000000      -5.622107      -5.622107
  zz       1.987210      -6.499625      -4.512415
  xy       0.000000       0.000000       0.000000
  xz       0.000000       0.000000       0.000000
  yz       0.000000      -0.000000      -0.000000
 
     1/3  trace=      -4.440670
     anisotropy=       2.111186
 
 ==============================================================================
 
 


    ------------------------------------------------------------------------
         total  cpu-time :   0.23 seconds
         total wall-time :   0.23 seconds
    ------------------------------------------------------------------------


   ****  dscf : all done  ****


    2019-06-10 17:11:54.180 

 hostname is         neptun
 this is node-proc. number 0 running on node neptun
 the total number of node-proc. spawned is   1

 ricc2 (neptun) : TURBOMOLE V7.0.1( 19978 ) 29 Sep 2015 at 10:17:19
 Copyright (C) 2015 TURBOMOLE GmbH, Karlsruhe


    2019-06-10 17:11:54.186 



                              R I C C 2 - PROGRAM

                          the quantum chemistry groups
                             at the universities in
                           Karlsruhe, Bochum & Mainz
                                   Germany



   *-----------------------------------------------------------------------*
   |                     program will use  1 thread(s)                     |
   *-----------------------------------------------------------------------*


              +--------------------------------------------------+
              | Atomic coordinate, charge and isotop information |
              +--------------------------------------------------+

                    atomic coordinates            atom    charge  isotop
          0.00000000    0.00000000   -0.12178984    o      8.000     0
          1.41713421    0.00000000    0.96657855    h      1.000     0
         -1.41713421    0.00000000    0.96657855    h      1.000     0
 
       center of nuclear mass  :    0.00000000    0.00000000   -0.00000000
       center of nuclear charge:    0.00000000    0.00000000    0.09588384

              +--------------------------------------------------+
              |               basis set information              |
              +--------------------------------------------------+

              we will work with the 1s 3p 5d 7f 9g ... basis set
              ...i.e. with spherical basis functions...

   type   atoms  prim   cont   basis
   ---------------------------------------------------------------------------
    o        1     43     23   aug-cc-pVDZ   [4s3p2d|18s5p2d]
    h        2     11      9   aug-cc-pVDZ   [3s2p|5s2p]
   ---------------------------------------------------------------------------
   total:    3     65     41
   ---------------------------------------------------------------------------

   total number of primitive shells          :   32
   total number of contracted shells         :   19
   total number of cartesian basis functions :   43
   total number of SCF-basis functions       :   41



   =========================================================================


     restricted closed shell calculation for the wavefunction models:
               ADC(2)     - Algebraic Diagrammatic Construction to 2. Order (strict)


     global parameters for ricc2 program:

        hard restart (reuse of interm.) :  disabled
        soft restart (reuse of vectors) :  disabled
        threshold for vector function   :    0.100000E-05
        convergence threshold energy    :    0.100000E-06
        linear dependence threshold     :    0.100000E-13
        global print level              :      1
        maximum number of iterations    :    30
        maximum number DIIS vectors     :    10
        max. dim. of reduced space      :   100
        core memory limit (MB)          :   500


   =========================================================================
     "cartesian on" in $drvopt is ignored by $ricc2

    der. integral neglect threshold  :  0.10E-07
    integral neglect threshold       :  0.78E-10
    integral storage threshold THIZE :  0.10E-04
    integral storage threshold THIME :         5


                  +------------------------------------------+
                  |     Auxiliary basis set information      |
                  +------------------------------------------+

              we will work with the 1s 3p 5d 7f 9g ... basis set
              ...i.e. with spherical basis functions...

   type   atoms  prim   cont   basis
   ---------------------------------------------------------------------------
    o        1     72     72   aug-cc-pVDZ   [8s6p5d3f|8s6p5d3f]
    h        2     23     23   aug-cc-pVDZ   [4s3p2d|4s3p2d]
   ---------------------------------------------------------------------------
   total:    3    118    118
   ---------------------------------------------------------------------------

   total number of primitive shells          :   31
   total number of contracted shells         :   40
   total number of cartesian basis functions :  136
   total number of SCF-basis functions       :  118


 symmetry group of the molecule :   c1 

 the group has the following generators :
   c1(z)

    1 symmetry operations found

 there are 1 real representations :   a   

 maximum number of shells which are related by symmetry :  1


 The symmetry information takes   1 MB

*---------------------------------------------------------------------*
|               simplified C1 algorithm will be applied               |
*---------------------------------------------------------------------*
  MOs are in ASCII format !


 reading orbital data $scfmo  from file mos . 

 orbital characterization : scfconv=7
 

         --------------------------------------------------------------
                   checking mo's by calculating trace(D*S)

              number of electrons : 
                 from trace(D*S)         :   10.000000000001
                 from occupation numbers :   10.000000000000

              molecular charge           :    0.000000000000
         --------------------------------------------------------------

 time elapsed for calculating density matrices :   0.000 sec
 all orbitals will be active in the correlation treatment


   Molecular Orbital Statistic:
   ============================

   -----------------------------
   orbitals in total:
   -----------------------------
    frozen occupied :      0
    active occupied :      5
    active virtual  :     36
    frozen virtual  :      0
    all together    :     41
   -----------------------------


     time in riccmos       cpu:  0.00 sec    wall:  0.00 sec    ratio:  0.8

     total memory allocated for calculation of (Q|P)**(-1/2) : 1 MiB


     calculation of (P|Q) ...
     time in lp2sym        cpu:  0.00 sec    wall:  0.00 sec    ratio:  0.2


     calculation of the Cholesky decomposition of (P|Q)**(-1) ...
     time in invmetri      cpu:  0.00 sec    wall:  0.00 sec    ratio:  0.0

   threshold for RMS(d[D]) in SCF was     :  0.10E-06
   integral neglect threshold             :  0.78E-10
   derivative integral neglect threshold  :  0.10E-07


 setting up bound for integral derivative estimation

 increment for numerical differentiation : 0.00050000

   =========================================================================

     Energy of reference wave function is   -76.0418133033600
     Maximum orbital residual is           0.7399577605706E-05


     Number of symmetry-nonredundant auxiliary basis functions:      118

     Block lengths for integral files:
        frozen occupied (BOI):        0 MiB
        active occupied (BJI):        1 MiB
        active virtual  (BAI):        1 MiB
        frozen virtual  (BGI):        0 MiB
               general  (BTI):        1 MiB

   =========================================================================




   **************************************************************************
   *                                                                        *
   *          OPTIMIZATION OF THE GROUND STATE CLUSTER AMPLITUDES           *
   *                                                                        *
   **************************************************************************


   Iter.   MP2 energy       Norm(Omega)    Norm(t1)  Norm(t2)     cpu    wall
   ...........................................................................
    1    -76.2626103957    0.0360432293     0.00000   0.13984    0.00    0.00
   ...........................................................................


     time in total         cpu:  0.01 sec    wall:  0.01 sec    ratio:  1.0


     **********************************************************************
     *                                                                    *
     *   RHF  energy                             :    -76.0418133034      *
     *   MP2 correlation energy                  :     -0.2207970924      *
     *                                                                    *
     *   Final MP2 energy                        :    -76.2626103957      *
     *                                                                    *
     *   Norm of MP1 T2 amplitudes               :      0.1398428339      *
     *                                                                    *
     *   D1 diagnostic                           :      0.0206            *
     *                                                                    *
     **********************************************************************



 **************************************************************
 *                                                            *
 *    OPTIMIZATION OF THE EXCITED STATE CLUSTER AMPLITUDES    *
 *                                                            *
 **************************************************************


  preoptimize excitation energies/vectors using CCS:
  ==================================================


 ======== LINEAR CC RESPONSE SOLVER ========

    threshold for convergence: 0.10E-02
    maximum number of simultaneous jacoby matrix transformations:  5
                                                
     summary of start vectors generation:
     -------------------------------------------
     type of solution vectors      : RE0
     symmetry                      : a  
     number of vectors requested   :     5
     number of vectors generated   :     5
       -- guessed as rhs/(e_a-e_i) :     5
     -------------------------------------------
                                                

    Iter  #Vectors  time (min)    max. residual 
    --------------------------------------------
      1       5         0.00     0.80E-01  (  1)
      2       5         0.00     0.61E-01  (  3)
      3       5         0.00     0.21E-01  (  3)
      4       5         0.00     0.98E-02  (  3)
      5       5         0.00     0.49E-02  (  3)
      6       2         0.00     0.23E-02  (  3)
      7       1         0.00     0.84E-03  (  4)
    --------------------------------------------
    converged in  7 iterations

         Total time          0.00 minutes


 ===========================================




 Note that this is the intermediate result of a preoptimization!
 The convergence threshold was  0.1E-02 only!


 +==================================================================+
 | sym | multi | state |          CCS excitation energies           |
 |     |       |       +--------------------------------------------+
 |     |       |       |   Hartree    |     eV       |     cm-1     |
 +==================================================================+
 | a   |   1   |   1   |    0.3219228 |      8.75996 |    70653.884 |
 | a   |   1   |   2   |    0.3837314 |     10.44186 |    84219.301 |
 | a   |   1   |   3   |    0.4070217 |     11.07562 |    89330.940 |
 | a   |   1   |   4   |    0.4473399 |     12.17274 |    98179.756 |
 | a   |   1   |   5   |    0.4677950 |     12.72935 |   102669.132 |
 +==================================================================+




  preoptimize ADC(2) excitation energies/vectors using a quasi linear algorithm:
  ==============================================================================


 ======== LINEAR CC RESPONSE SOLVER ========

    threshold for convergence: 0.10E-02
    maximum number of simultaneous jacoby matrix transformations:  5
                                                
     summary of start vectors generation:
     -------------------------------------------
     type of solution vectors      : RE0
     symmetry                      : a  
     number of vectors requested   :     5
     number of vectors generated   :     5
       -- restarted from file      :     5
     -------------------------------------------
                                                

    Iter  #Vectors  time (min)    max. residual 
    --------------------------------------------
 threshold for this macro iteration:  6.435217297904045E-002
      1       5         0.00     0.52E-01  (  5)
                                                
     summary of start vectors generation:
     -------------------------------------------
     type of solution vectors      : RE0
     symmetry                      : a  
     number of vectors requested   :     5
     number of vectors generated   :     5
       -- restarted from file      :     5
     -------------------------------------------
                                                

    Iter  #Vectors  time (min)    max. residual 
    --------------------------------------------
 threshold for this macro iteration:  4.999208472168837E-003
      2       5         0.00     0.50E-01  (  5)
      3       5         0.00     0.18E-01  (  2)
      4       5         0.00     0.80E-02  (  3)
      5       2         0.00     0.48E-02  (  5)
                                                
     summary of start vectors generation:
     -------------------------------------------
     type of solution vectors      : RE0
     symmetry                      : a  
     number of vectors requested   :     5
     number of vectors generated   :     5
       -- restarted from file      :     5
     -------------------------------------------
                                                

    Iter  #Vectors  time (min)    max. residual 
    --------------------------------------------
 threshold for this macro iteration:  1.000000000000000E-003
      6       5         0.00     0.15E-02  (  5)
      7       2         0.00     0.93E-03  (  4)
    --------------------------------------------
    converged in  7 iterations

         Total time          0.00 minutes


 ===========================================




 Note that this is the intermediate result of a preoptimization!
 The convergence threshold was  0.1E-02 only!


 +==================================================================+
 | sym | multi | state |          ADC(2) excitation energies        |
 |     |       |       +--------------------------------------------+
 |     |       |       |   Hartree    |     eV       |     cm-1     |
 +==================================================================+
 | a   |   1   |   1   |    0.2593962 |      7.05853 |    56930.875 |
 | a   |   1   |   2   |    0.3198540 |      8.70367 |    70199.845 |
 | a   |   1   |   3   |    0.3460662 |      9.41694 |    75952.746 |
 | a   |   1   |   4   |    0.3913510 |     10.64920 |    85891.619 |
 | a   |   1   |   5   |    0.4054245 |     11.03216 |    88980.385 |
 +==================================================================+





  solve for ADC(2) excitation energies/vectors using a DIIS algorithm:
  =================================================================
                                                
     summary of start vectors generation:
     -------------------------------------------
     type of solution vectors      : RE0
     symmetry                      : a  
     number of vectors requested   :     5
     number of vectors generated   :     5
       -- restarted from file      :     5
     -------------------------------------------
                                                


 ========= DIIS CC RESPONSE SOLVER =========

    threshold for convergence:0.10E-05
    max. nb. of DIIS vectors :      10
    maximum number of simultaneous jacoby matrix transformations:  5

    Iter  #Vectors  time (min)   residual
    --------------------------------------
      1       5         0.00     0.57E-03  (  4)    0.87E-04
      2       5         0.00     0.42E-03  (  4)    0.82E-04
      3       5         0.00     0.16E-03  (  4)    0.90E-04
      4       5         0.00     0.98E-04  (  4)    0.84E-04
      5       5         0.00     0.52E-04  (  4)    0.10E-03
      6       5         0.00     0.27E-04  (  4)    0.79E-04
      7       3         0.00     0.74E-05  (  4)    0.94E-04
      8       1         0.00     0.20E-05  (  4)    0.92E-04
      9       1         0.00     0.74E-06  (  4)    0.93E-04
    --------------------------------------
    converged in   9 iterations

   Total time          0.00 minutes


 ===========================================





 +================================================================================+
 | sym | multi | state |          ADC(2) excitation energies    |  %t1   |  %t2   |
 |     |       |       +----------------------------------------+--------+--------+
 |     |       |       |   Hartree    |    eV      |    cm-1    |    %   |    %   |
 +================================================================================+
 | a   |   1   |   1   |    0.2594060 |    7.05880 |  56933.037 |  92.99 |   7.01 |
 | a   |   1   |   2   |    0.3198309 |    8.70304 |  70194.760 |  92.53 |   7.47 |
 | a   |   1   |   3   |    0.3460645 |    9.41689 |  75952.386 |  92.99 |   7.01 |
 | a   |   1   |   4   |    0.3913447 |   10.64903 |  85890.241 |  93.25 |   6.75 |
 | a   |   1   |   5   |    0.4054152 |   11.03191 |  88978.348 |  92.59 |   7.41 |
 +================================================================================+


       Energy:     0.2594060 H      7.05880 eV    56933.037 cm-1

     +=======================================================================+
     | type: RE0                    symmetry: a               state:    1    |
     +-----------------------+-----------------------+-----------------------+
     | occ. orb.  index spin | vir. orb.  index spin |  coeff/|amp|     %    |
     +=======================+=======================+=======================+
     |    5 a        5       |    6 a        6       |   0.90203      81.4   |
     |    5 a        5       |   10 a       10       |   0.30336       9.2   |
     |    5 a        5       |    8 a        8       |   0.28970       8.4   |
     +=======================+=======================+=======================+
     norm of printed elements:  0.98961


       Energy:     0.3198309 H      8.70304 eV    70194.760 cm-1

     +=======================================================================+
     | type: RE0                    symmetry: a               state:    2    |
     +-----------------------+-----------------------+-----------------------+
     | occ. orb.  index spin | vir. orb.  index spin |  coeff/|amp|     %    |
     +=======================+=======================+=======================+
     |    5 a        5       |    7 a        7       |   0.92239      85.1   |
     |    5 a        5       |   11 a       11       |  -0.29540       8.7   |
     |    5 a        5       |   12 a       12       |   0.23557       5.5   |
     +=======================+=======================+=======================+
     norm of printed elements:  0.99355


       Energy:     0.3460645 H      9.41689 eV    75952.386 cm-1

     +=======================================================================+
     | type: RE0                    symmetry: a               state:    3    |
     +-----------------------+-----------------------+-----------------------+
     | occ. orb.  index spin | vir. orb.  index spin |  coeff/|amp|     %    |
     +=======================+=======================+=======================+
     |    4 a        4       |    6 a        6       |   0.90614      82.1   |
     |    4 a        4       |   10 a       10       |   0.31679      10.0   |
     |    4 a        4       |    8 a        8       |   0.23674       5.6   |
     +=======================+=======================+=======================+
     norm of printed elements:  0.97749


       Energy:     0.3913447 H     10.64903 eV    85890.241 cm-1

     +=======================================================================+
     | type: RE0                    symmetry: a               state:    4    |
     +-----------------------+-----------------------+-----------------------+
     | occ. orb.  index spin | vir. orb.  index spin |  coeff/|amp|     %    |
     +=======================+=======================+=======================+
     |    5 a        5       |    8 a        8       |   0.92853      86.2   |
     |    5 a        5       |    6 a        6       |  -0.29534       8.7   |
     |    5 a        5       |   15 a       15       |  -0.19103       3.6   |
     +=======================+=======================+=======================+
     norm of printed elements:  0.98588


       Energy:     0.4054152 H     11.03191 eV    88978.348 cm-1

     +=======================================================================+
     | type: RE0                    symmetry: a               state:    5    |
     +-----------------------+-----------------------+-----------------------+
     | occ. orb.  index spin | vir. orb.  index spin |  coeff/|amp|     %    |
     +=======================+=======================+=======================+
     |    4 a        4       |    7 a        7       |   0.93121      86.7   |
     |    4 a        4       |   11 a       11       |  -0.29794       8.9   |
     +=======================+=======================+=======================+
     norm of printed elements:  0.95593



      The semi-canonical algorithm will be used for densities


    ------------------------------------------------------------------------
         total  cpu-time :   0.58 seconds
         total wall-time :   0.58 seconds
    ------------------------------------------------------------------------


   ****  ricc2 : all done  ****


    2019-06-10 17:11:54.769 

